 Entering Gaussian System
 *********************************************
 Gaussian 98:
 frequency output generated by the xtb code
 *********************************************
                         Standard orientation:
 --------------------------------------------------------------------
  Center     Atomic     Atomic              Coordinates (Angstroms)
  Number     Number      Type              X           Y           Z
 --------------------------------------------------------------------
    1          6             0       -0.000000   -0.000000    0.000000
    2          8             0        0.000004    0.000002    1.143617
    3          8             0       -0.000004   -0.000002   -1.143617
 --------------------------------------------------------------------
     1 basis functions        1 primitive gaussians
     1 alpha electrons        1 beta electrons
 
 Harmonic frequencies (cm**-1), IR intensities (km*mol⁻¹),
 Raman scattering activities (A**4/amu), Raman depolarization ratios,
 reduced masses (AMU), force constants (mDyne/A) and normal coordinates:
                      1                      2                      3
                        a                      a                      a 
 Frequencies --   600.1781               600.1781              1424.9798
 Red. masses --    13.0986                13.0986                15.9994
 Frc consts  --     0.0000                 0.0000                 0.0000
 IR Inten    --    68.7006                68.7006                 0.0000
 Raman Activ --     0.0000                 0.0000                 0.0000
 Depolar     --     0.0000                 0.0000                 0.0000
 Atom AN      X      Y      Z        X      Y      Z        X      Y      Z
   1   6    -0.85   0.00   0.00    -0.00  -0.85   0.00    -0.00   0.00  -0.00
   2   8     0.37  -0.00  -0.00     0.00   0.37  -0.00    -0.00  -0.00  -0.71
   3   8     0.37  -0.00  -0.00     0.00   0.37  -0.00     0.00   0.00   0.71
                      4
                        a 
 Frequencies --  2593.4413
 Red. masses --    13.0995
 Frc consts  --     0.0000
 IR Inten    --  1046.1841
 Raman Activ --     0.0000
 Depolar     --     0.0000
 Atom AN      X      Y      Z        X      Y      Z        X      Y      Z
   1   6    -0.00  -0.00  -0.85
   2   8     0.00   0.00   0.37
   3   8     0.00   0.00   0.37
