inpf="h2o.inp"

module purge
module load orca/4.1.1

job_directory="${SLURM_JOB_NAME}_${SLURM_JOB_ID}"
mkdir ${job_directory}
lfs setstripe -c 2 ${job_directory}
cp $inpf ${job_directory}/
cd ${job_directory}

cat $inpf

$(which orca) $inpf

! BP def2-SVP RI def2/J  TightSCF Grid5 NoFinalGrid
! Opt
! AnFreq

%freq Hess2ElFlags 1,2,2,1
      end


%pal
nprocs 36    # parallel execution
end

% maxcore 3000

* xyz 0 1
8               -0.000001   -0.000001   -0.379301
1                0.772209   -0.000004    0.189648
1               -0.772207    0.000004    0.189653
*


                                 *****************
                                 * O   R   C   A *
                                 *****************

           --- An Ab Initio, DFT and Semiempirical electronic structure package ---

                  #######################################################
                  #                        -***-                        #
                  #          Department of theory and spectroscopy      #
                  #               Directorship: Frank Neese             #
                  #        Max Planck Institute fuer Kohlenforschung    #
                  #                Kaiser Wilhelm Platz 1               #
                  #                 D-45470 Muelheim/Ruhr               #
                  #                      Germany                        #
                  #                                                     #
                  #                  All rights reserved                #
                  #                        -***-                        #
                  #######################################################


                         Program Version 4.1.1  - RELEASE  -


 With contributions from (in alphabetic order):
   Daniel Aravena         : Magnetic Properties
   Michael Atanasov       : Ab Initio Ligand Field Theory
   Alexander A. Auer      : GIAO ZORA
   Ute Becker             : Parallelization
   Giovanni Bistoni       : ED, Open-shell LED
   Martin Brehm           : Molecular dynamics
   Dmytro Bykov           : SCF Hessian
   Vijay G. Chilkuri      : MRCI spin determinant printing
   Dipayan Datta          : RHF DLPNO-CCSD density
   Achintya Kumar Dutta   : EOM-CC, STEOM-CC
   Dmitry Ganyushin       : Spin-Orbit,Spin-Spin,Magnetic field MRCI
   Miquel Garcia          : C-PCM Hessian
   Yang Guo               : DLPNO-NEVPT2, CIM, IAO-localization
   Andreas Hansen         : Spin unrestricted coupled pair/coupled cluster methods
   Benjamin Helmich-Paris : CASSCF linear response (MC-RPA)
   Lee Huntington         : MR-EOM, pCC
   Robert Izsak           : Overlap fitted RIJCOSX, COSX-SCS-MP3, EOM
   Christian Kollmar      : KDIIS, OOCD, Brueckner-CCSD(T), CCSD density
   Simone Kossmann        : Meta GGA functionals, TD-DFT gradient, OOMP2, MP2 Hessian
   Martin Krupicka        : AUTO-CI
   Lucas Lang             : DCDCAS
   Dagmar Lenk            : GEPOL surface, SMD
   Dimitrios Liakos       : Extrapolation schemes; parallel MDCI
   Dimitrios Manganas     : ROCIS; embedding schemes
   Dimitrios Pantazis     : SARC Basis sets
   Taras Petrenko         : DFT Hessian,TD-DFT gradient, ASA, ECA, R-Raman, ABS, FL, XAS/XES, NRVS
   Peter Pinski           : DLPNO-MP2, DLPNO-MP2 Gradient
   Christoph Reimann      : Effective Core Potentials
   Marius Retegan         : Local ZFS, SOC
   Christoph Riplinger    : Optimizer, TS searches, QM/MM, DLPNO-CCSD(T), (RO)-DLPNO pert. Triples
   Tobias Risthaus        : Range-separated hybrids, TD-DFT gradient, RPA, STAB
   Michael Roemelt        : Restricted open shell CIS
   Masaaki Saitow         : Open-shell DLPNO
   Barbara Sandhoefer     : DKH picture change effects
   Avijit Sen             : IP-ROCIS
   Kantharuban Sivalingam : CASSCF convergence, NEVPT2, FIC-MRCI
   Bernardo de Souza      : ESD, SOC TD-DFT
   Georgi Stoychev        : AutoAux, RI-MP2 NMR
   Willem Van den Heuvel  : Paramagnetic NMR
   Boris Wezisla          : Elementary symmetry handling
   Frank Wennmohs         : Technical directorship


 We gratefully acknowledge several colleagues who have allowed us to
 interface, adapt or use parts of their codes:
   Stefan Grimme, W. Hujo, H. Kruse,             : VdW corrections, initial TS optimization,
                  C. Bannwarth                     DFT functionals, gCP, sTDA/sTD-DF
   Ed Valeev                                     : LibInt (2-el integral package), F12 methods
   Garnet Chan, S. Sharma, J. Yang, R. Olivares  : DMRG
   Ulf Ekstrom                                   : XCFun DFT Library
   Mihaly Kallay                                 : mrcc  (arbitrary order and MRCC methods)
   Andreas Klamt, Michael Diedenhofen            : otool_cosmo (COSMO solvation model)
   Jiri Pittner, Ondrej Demel                    : Mk-CCSD
   Frank Weinhold                                : gennbo (NPA and NBO analysis)
   Christopher J. Cramer and Donald G. Truhlar   : smd solvation model
   Lars Goerigk                                  : TD-DFT with DH, B97 family of functionals
   V. Asgeirsson, H. Jonsson                     : NEB implementation
   FAccTs GmbH                                   : IRC, NEB, NEB-TS, Multilevel


 Your calculation uses the libint2 library for the computation of 2-el integrals
 For citations please refer to: http://libint.valeyev.net

 This ORCA versions uses:
   CBLAS   interface :  Fast vector & matrix operations
   LAPACKE interface :  Fast linear algebra routines
   SCALAPACK package :  Parallel linear algebra routines


----- Orbital basis set information -----
Your calculation utilizes the basis: def2-SVP
   F. Weigend and R. Ahlrichs, Phys. Chem. Chem. Phys. 7, 3297 (2005).

----- AuxJ basis set information -----
Your calculation utilizes the auxiliary basis: def2/J
   F. Weigend, Phys. Chem. Chem. Phys. 8, 1057 (2006).

================================================================================
                                        WARNINGS
                       Please study these warnings very carefully!
================================================================================


WARNING: Geometry Optimization
  ===> : Switching off AutoStart
         For restart on a previous wavefunction, please use MOREAD

INFO   : the flag for use of LIBINT has been found!

================================================================================
                                       INPUT FILE
================================================================================
NAME = h2o.inp
|  1> ! BP def2-SVP RI def2/J  TightSCF Grid5 NoFinalGrid
|  2> ! Opt
|  3> ! AnFreq
|  4> 
|  5> %freq Hess2ElFlags 1,2,2,1
|  6>       end
|  7> 
|  8> 
|  9> %pal
| 10> nprocs 36    # parallel execution
| 11> end
| 12> 
| 13> % maxcore 3000
| 14> 
| 15> * xyz 0 1
| 16> 8               -0.000001   -0.000001   -0.379301
| 17> 1                0.772209   -0.000004    0.189648
| 18> 1               -0.772207    0.000004    0.189653
| 19> *
| 20> 
| 21> 
| 22>                          ****END OF INPUT****
================================================================================

                       *****************************
                       * Geometry Optimization Run *
                       *****************************

Geometry optimization settings:
Update method            Update   .... BFGS
Choice of coordinates    CoordSys .... Z-matrix Internals
Initial Hessian          InHess   .... Almoef's Model

Convergence Tolerances:
Energy Change            TolE     ....  5.0000e-06 Eh
Max. Gradient            TolMAXG  ....  3.0000e-04 Eh/bohr
RMS Gradient             TolRMSG  ....  1.0000e-04 Eh/bohr
Max. Displacement        TolMAXD  ....  4.0000e-03 bohr
RMS Displacement         TolRMSD  ....  2.0000e-03 bohr

------------------------------------------------------------------------------
                        ORCA OPTIMIZATION COORDINATE SETUP
------------------------------------------------------------------------------

The optimization will be done in new redundant internal coordinates
Making redundant internal coordinates   ...  (new redundants) done
Evaluating the initial hessian          ...  (Almloef) done
Evaluating the coordinates              ...  done
Calculating the B-matrix                .... done
Calculating the G-matrix                .... done
Diagonalizing the G-matrix              .... done
The first mode is                       ....    0
The number of degrees of freedom        ....    3

    -----------------------------------------------------------------
                    Redundant Internal Coordinates


    -----------------------------------------------------------------
         Definition                    Initial Value    Approx d2E/dq
    -----------------------------------------------------------------
      1. B(H   1,O   0)                  0.9592         0.521540   
      2. B(H   2,O   0)                  0.9592         0.521540   
      3. A(H   1,O   0,H   2)          107.2355         0.322155   
    -----------------------------------------------------------------

Number of atoms                         .... 3
Number of degrees of freedom            .... 3

         *************************************************************
         *                GEOMETRY OPTIMIZATION CYCLE   1            *
         *************************************************************
---------------------------------
CARTESIAN COORDINATES (ANGSTROEM)
---------------------------------
  O     -0.000001   -0.000001   -0.379301
  H      0.772209   -0.000004    0.189648
  H     -0.772207    0.000004    0.189653

----------------------------
CARTESIAN COORDINATES (A.U.)
----------------------------
  NO LB      ZA    FRAG     MASS         X           Y           Z
   0 O     8.0000    0    15.999   -0.000002   -0.000002   -0.716775
   1 H     1.0000    0     1.008    1.459264   -0.000008    0.358383
   2 H     1.0000    0     1.008   -1.459260    0.000008    0.358392

--------------------------------
INTERNAL COORDINATES (ANGSTROEM)
--------------------------------
 O      0   0   0     0.000000000000     0.00000000     0.00000000
 H      1   0   0     0.959172168440     0.00000000     0.00000000
 H      1   2   0     0.959171913985   107.23551561     0.00000000

---------------------------
INTERNAL COORDINATES (A.U.)
---------------------------
 O      0   0   0     0.000000000000     0.00000000     0.00000000
 H      1   0   0     1.812572713631     0.00000000     0.00000000
 H      1   2   0     1.812572232780   107.23551561     0.00000000

---------------------
BASIS SET INFORMATION
---------------------
There are 2 groups of distinct atoms

 Group   1 Type O   : 7s4p1d contracted to 3s2p1d pattern {511/31/1}
 Group   2 Type H   : 4s1p contracted to 2s1p pattern {31/1}

Atom   0O    basis set group =>   1
Atom   1H    basis set group =>   2
Atom   2H    basis set group =>   2
-------------------------------
AUXILIARY BASIS SET INFORMATION
-------------------------------
There are 2 groups of distinct atoms

 Group   1 Type O   : 12s5p4d2f1g contracted to 6s4p3d1f1g pattern {711111/2111/211/2/1}
 Group   2 Type H   : 5s2p1d contracted to 3s1p1d pattern {311/2/1}

Atom   0O    basis set group =>   1
Atom   1H    basis set group =>   2
Atom   2H    basis set group =>   2


           ************************************************************
           *        Program running with 36 parallel MPI-processes    *
           *              working on a common directory               *
           ************************************************************
------------------------------------------------------------------------------
                           ORCA GTO INTEGRAL CALCULATION
                           -- RI-GTO INTEGRALS CHOSEN --
------------------------------------------------------------------------------

                         BASIS SET STATISTICS AND STARTUP INFO

Gaussian basis set:
 # of primitive gaussian shells          ...   22
 # of primitive gaussian functions       ...   38
 # of contracted shells                  ...   12
 # of contracted basis functions         ...   24
 Highest angular momentum                ...    2
 Maximum contraction depth               ...    5
Auxiliary gaussian basis set:
 # of primitive gaussian shells          ...   40
 # of primitive gaussian functions       ...  102
 # of contracted shells                  ...   25
 # of contracted aux-basis functions     ...   71
 Highest angular momentum                ...    4
 Maximum contraction depth               ...    7
Ratio of auxiliary to basis functions    ...  2.96
Integral package used                  ... LIBINT
 One Electron integrals                  ... done
 Ordering auxiliary basis shells         ... done
 Integral threshhold             Thresh  ...  2.500e-11
 Primitive cut-off               TCut    ...  2.500e-12
 Pre-screening matrix                    ... done
 Shell pair data                         ... 
 Ordering of the shell pairs             ... done (   0.000 sec) 78 of 78 pairs
 Determination of significant pairs      ... done (   0.000 sec)
 Creation of shell pair data             ... done (   0.000 sec)
 Storage of shell pair data              ... done (   0.026 sec)
 Shell pair data done in (   0.026 sec)
 Computing two index integrals           ... done
 Cholesky decomposition of the V-matrix  ... done


Timings:
 Total evaluation time                   ...   0.339 sec (  0.006 min)
 One electron matrix time                ...   0.024 sec (  0.000 min) =  7.1%
 Schwartz matrix evaluation time         ...   0.248 sec (  0.004 min) = 73.2%
 Two index repulsion integral time       ...   0.004 sec (  0.000 min) =  1.3%
 Cholesky decomposition of V             ...   0.011 sec (  0.000 min) =  3.4%
 Three index repulsion integral time     ...   0.000 sec (  0.000 min) =  0.0%



           ************************************************************
           *        Program running with 36 parallel MPI-processes    *
           *              working on a common directory               *
           ************************************************************
-------------------------------------------------------------------------------
                                 ORCA SCF
-------------------------------------------------------------------------------

------------
SCF SETTINGS
------------
Hamiltonian:
 Density Functional     Method          .... DFT(GTOs)
 Exchange Functional    Exchange        .... B88
   X-Alpha parameter    XAlpha          ....  0.666667
   Becke's b parameter  XBeta           ....  0.004200
 Correlation Functional Correlation     .... P86
 LDA part of GGA corr.  LDAOpt          .... PW91-LDA
 Gradients option       PostSCFGGA      .... off
   Density functional embedding theory  .... OFF
 RI-approximation to the Coulomb term is turned on
   Number of auxiliary basis functions  .... 71


General Settings:
 Integral files         IntName         .... h2o
 Hartree-Fock type      HFTyp           .... RHF
 Total Charge           Charge          ....    0
 Multiplicity           Mult            ....    1
 Number of Electrons    NEL             ....   10
 Basis Dimension        Dim             ....   24
 Nuclear Repulsion      ENuc            ....      9.1698722833 Eh

Convergence Acceleration:
 DIIS                   CNVDIIS         .... on
   Start iteration      DIISMaxIt       ....    12
   Startup error        DIISStart       ....  0.200000
   # of expansion vecs  DIISMaxEq       ....     5
   Bias factor          DIISBfac        ....   1.050
   Max. coefficient     DIISMaxC        ....  10.000
 Newton-Raphson         CNVNR           .... off
 SOSCF                  CNVSOSCF        .... on
   Start iteration      SOSCFMaxIt      ....   150
   Startup grad/error   SOSCFStart      ....  0.003300
 Level Shifting         CNVShift        .... on
   Level shift para.    LevelShift      ....    0.2500
   Turn off err/grad.   ShiftErr        ....    0.0010
 Zerner damping         CNVZerner       .... off
 Static damping         CNVDamp         .... on
   Fraction old density DampFac         ....    0.7000
   Max. Damping (<1)    DampMax         ....    0.9800
   Min. Damping (>=0)   DampMin         ....    0.0000
   Turn off err/grad.   DampErr         ....    0.1000
 Fernandez-Rico         CNVRico         .... off

SCF Procedure:
 Maximum # iterations   MaxIter         ....   125
 SCF integral mode      SCFMode         .... Direct
   Integral package                     .... LIBINT
 Reset frequency        DirectResetFreq ....    20
 Integral Threshold     Thresh          ....  2.500e-11 Eh
 Primitive CutOff       TCut            ....  2.500e-12 Eh

Convergence Tolerance:
 Convergence Check Mode ConvCheckMode   .... Total+1el-Energy
 Convergence forced     ConvForced      .... 0
 Energy Change          TolE            ....  1.000e-08 Eh
 1-El. energy change                    ....  1.000e-05 Eh
 Orbital Gradient       TolG            ....  1.000e-05
 Orbital Rotation angle TolX            ....  1.000e-05
 DIIS Error             TolErr          ....  5.000e-07


Diagonalization of the overlap matrix:
Smallest eigenvalue                        ... 3.831e-02
Time for diagonalization                   ...    0.010 sec
Threshold for overlap eigenvalues          ... 1.000e-08
Number of eigenvalues below threshold      ... 0
Time for construction of square roots      ...    0.009 sec
Total time needed                          ...    0.019 sec

-------------------
DFT GRID GENERATION
-------------------

General Integration Accuracy     IntAcc      ...  5.010
Radial Grid Type                 RadialGrid  ... Gauss-Chebyshev
Angular Grid (max. acc.)         AngularGrid ... Lebedev-434
Angular grid pruning method      GridPruning ... 3 (G Style)
Weight generation scheme         WeightScheme... Becke
Basis function cutoff            BFCut       ...    1.0000e-11
Integration weight cutoff        WCut        ...    1.0000e-14
Grids for H and He will be reduced by one unit

# of grid points (after initial pruning)     ...  24226 (   0.0 sec)
# of grid points (after weights+screening)   ...  24006 (   0.0 sec)
nearest neighbour list constructed           ...    0.0 sec
Grid point re-assignment to atoms done       ...    0.0 sec
Grid point division into batches done        ...    0.2 sec
Reduced shell lists constructed in    0.2 sec

Total number of grid points                  ...    24006
Total number of batches                      ...      376
Average number of points per batch           ...       63
Average number of grid points per atom       ...     8002
Average number of shells per batch           ...     1.58 (13.19%)
Average number of basis functions per batch  ...     2.08 ( 8.68%)
Average number of large shells per batch     ...     1.33 (84.21%)
Average number of large basis fcns per batch ...     1.67 (80.00%)
Maximum spatial batch extension              ...  13.72, 16.27, 10.67 au
Average spatial batch extension              ...   0.28,  0.35,  0.24 au

Time for grid setup =   12.161 sec

------------------------------
INITIAL GUESS: MODEL POTENTIAL
------------------------------
Loading Hartree-Fock densities                     ... done
Calculating cut-offs                               ... done
Setting up the integral package                    ... done
Initializing the effective Hamiltonian             ... done
Starting the Coulomb interaction                   ... done (   0.0 sec)
Reading the grid                                   ... done
Mapping shells                                     ... done
Starting the XC term evaluation                    ... done (   0.0 sec)
  promolecular density results
     # of electrons  =      9.999021960
     EX              =     -8.782608989
     EC              =     -0.351911851
     EX+EC           =     -9.134520840
Transforming the Hamiltonian                       ... done (   0.0 sec)
Diagonalizing the Hamiltonian                      ... done (   0.0 sec)
Back transforming the eigenvectors                 ... done (   0.0 sec)
Now organizing SCF variables                       ... done
                      ------------------
                      INITIAL GUESS DONE (  12.3 sec)
                      ------------------
--------------
SCF ITERATIONS
--------------
ITER       Energy         Delta-E        Max-DP      RMS-DP      [F,P]     Damp
               ***  Starting incremental Fock matrix formation  ***
  0    -76.2716372303   0.000000000000 0.09121449  0.00972692  0.2911703 0.7000
  1    -76.3168157579  -0.045178527663 0.04914552  0.00516718  0.1063427 0.7000
                               ***Turning on DIIS***
  2    -76.3298780656  -0.013062307662 0.04372670  0.00494067  0.0144155 0.0000
  3    -76.3557490819  -0.025871016359 0.02729063  0.00294827  0.0610561 0.0000
  4    -76.3597295228  -0.003980440898 0.00495817  0.00066941  0.0076984 0.0000
                      *** Initiating the SOSCF procedure ***
                           *** Shutting down DIIS ***
                      *** Re-Reading the Fockian *** 
                      *** Removing any level shift *** 
ITER      Energy       Delta-E        Grad      Rot      Max-DP    RMS-DP
  5    -76.35985284  -0.0001233181  0.001053  0.001053  0.002087  0.000230
               *** Restarting incremental Fock matrix formation ***
  6    -76.35986098  -0.0000081434  0.000459  0.001356  0.001948  0.000172
  7    -76.35986165  -0.0000006624  0.000391  0.000221  0.000513  0.000050
  8    -76.35986204  -0.0000003922  0.000192  0.000288  0.000296  0.000039
  9    -76.35986217  -0.0000001284  0.000021  0.000060  0.000063  0.000007
 10    -76.35986217  -0.0000000033  0.000005  0.000003  0.000006  0.000001
                 **** Energy Check signals convergence ****
              ***Rediagonalizing the Fockian in SOSCF/NRSCF***

               *****************************************************
               *                     SUCCESS                       *
               *           SCF CONVERGED AFTER  11 CYCLES          *
               *****************************************************


----------------
TOTAL SCF ENERGY
----------------

Total Energy       :          -76.35986217 Eh           -2077.85749 eV

Components:
Nuclear Repulsion  :            9.16987228 Eh             249.52491 eV
Electronic Energy  :          -85.52973445 Eh           -2327.38240 eV
One Electron Energy:         -123.05102081 Eh           -3348.38850 eV
Two Electron Energy:           37.52128635 Eh            1021.00611 eV

Virial components:
Potential Energy   :         -152.17745448 Eh           -4140.95906 eV
Kinetic Energy     :           75.81759231 Eh            2063.10157 eV
Virial Ratio       :            2.00715230


DFT components:
N(Alpha)           :        5.000000086422 electrons
N(Beta)            :        5.000000086422 electrons
N(Total)           :       10.000000172844 electrons
E(X)               :       -8.991744503804 Eh       
E(C)               :       -0.364376386116 Eh       
E(XC)              :       -9.356120889920 Eh       
DFET-embed. en.    :        0.000000000000 Eh       

---------------
SCF CONVERGENCE
---------------

  Last Energy change         ...   -7.1729e-10  Tolerance :   1.0000e-08
  Last MAX-Density change    ...    1.0496e-06  Tolerance :   1.0000e-07
  Last RMS-Density change    ...    1.4204e-07  Tolerance :   5.0000e-09
  Last Orbital Gradient      ...    8.3518e-07  Tolerance :   1.0000e-05
  Last Orbital Rotation      ...    1.2167e-06  Tolerance :   1.0000e-05

             **** THE GBW FILE WAS UPDATED (h2o.gbw) ****
             **** DENSITY FILE WAS UPDATED (h2o.scfp.tmp) ****
             **** ENERGY FILE WAS UPDATED (h2o.en.tmp) ****
----------------
ORBITAL ENERGIES
----------------

  NO   OCC          E(Eh)            E(eV) 
   0   2.0000     -18.756817      -510.3989 
   1   2.0000      -0.892887       -24.2967 
   2   2.0000      -0.468764       -12.7557 
   3   2.0000      -0.303899        -8.2695 
   4   2.0000      -0.232574        -6.3287 
   5   0.0000       0.034670         0.9434 
   6   0.0000       0.111857         3.0438 
   7   0.0000       0.530696        14.4410 
   8   0.0000       0.567366        15.4388 
   9   0.0000       0.859454        23.3869 
  10   0.0000       0.864288        23.5185 
  11   0.0000       0.953178        25.9373 
  12   0.0000       1.033495        28.1228 
  13   0.0000       1.274365        34.6772 
  14   0.0000       1.385280        37.6954 
  15   0.0000       1.502021        40.8721 
  16   0.0000       1.702842        46.3367 
  17   0.0000       2.147735        58.4428 
  18   0.0000       2.180004        59.3209 
  19   0.0000       2.855472        77.7013 
  20   0.0000       2.927574        79.6633 
  21   0.0000       3.081658        83.8562 
  22   0.0000       3.431311        93.3707 
  23   0.0000       3.707034       100.8735 

                    ********************************
                    * MULLIKEN POPULATION ANALYSIS *
                    ********************************

-----------------------
MULLIKEN ATOMIC CHARGES
-----------------------
   0 O :   -0.298332
   1 H :    0.149166
   2 H :    0.149166
Sum of atomic charges:   -0.0000000

--------------------------------
MULLIKEN REDUCED ORBITAL CHARGES
--------------------------------
  0 O s       :     3.676731  s :     3.676731
      pz      :     1.524160  p :     4.611308
      px      :     1.129940
      py      :     1.957208
      dz2     :     0.001358  d :     0.010292
      dxz     :     0.006847
      dyz     :     0.001221
      dx2y2   :     0.000866
      dxy     :     0.000000
  1 H s       :     0.779917  s :     0.779917
      pz      :     0.021900  p :     0.070917
      px      :     0.028232
      py      :     0.020785
  2 H s       :     0.779917  s :     0.779917
      pz      :     0.021900  p :     0.070917
      px      :     0.028232
      py      :     0.020785


                     *******************************
                     * LOEWDIN POPULATION ANALYSIS *
                     *******************************

----------------------
LOEWDIN ATOMIC CHARGES
----------------------
   0 O :   -0.139941
   1 H :    0.069970
   2 H :    0.069970

-------------------------------
LOEWDIN REDUCED ORBITAL CHARGES
-------------------------------
  0 O s       :     3.422631  s :     3.422631
      pz      :     1.588479  p :     4.697845
      px      :     1.221738
      py      :     1.887628
      dz2     :     0.000700  d :     0.019464
      dxz     :     0.014979
      dyz     :     0.000377
      dx2y2   :     0.003409
      dxy     :     0.000000
  1 H s       :     0.750723  s :     0.750723
      pz      :     0.061260  p :     0.179306
      px      :     0.062050
      py      :     0.055997
  2 H s       :     0.750723  s :     0.750723
      pz      :     0.061260  p :     0.179306
      px      :     0.062049
      py      :     0.055997


                      *****************************
                      * MAYER POPULATION ANALYSIS *
                      *****************************

  NA   - Mulliken gross atomic population
  ZA   - Total nuclear charge
  QA   - Mulliken gross atomic charge
  VA   - Mayer's total valence
  BVA  - Mayer's bonded valence
  FA   - Mayer's free valence

  ATOM       NA         ZA         QA         VA         BVA        FA
  0 O      8.2983     8.0000    -0.2983     2.0203     2.0203    -0.0000
  1 H      0.8508     1.0000     0.1492     1.0180     1.0180    -0.0000
  2 H      0.8508     1.0000     0.1492     1.0180     1.0180    -0.0000

  Mayer bond orders larger than 0.1
B(  0-O ,  1-H ) :   1.0102 B(  0-O ,  2-H ) :   1.0102 

-------
TIMINGS
-------

Total SCF time: 0 days 0 hours 0 min 28 sec 

Total time                  ....      28.111 sec
Sum of individual times     ....      27.495 sec  ( 97.8%)

Fock matrix formation       ....      15.004 sec  ( 53.4%)
  Split-RI-J                ....       1.933 sec  ( 12.9% of F)
  XC integration            ....      12.344 sec  ( 82.3% of F)
    Basis function eval.    ....       0.008 sec  (  0.1% of XC)
    Density eval.           ....       0.083 sec  (  0.7% of XC)
    XC-Functional eval.     ....       0.030 sec  (  0.2% of XC)
    XC-Potential eval.      ....       0.002 sec  (  0.0% of XC)
Diagonalization             ....       0.059 sec  (  0.2%)
Density matrix formation    ....       0.001 sec  (  0.0%)
Population analysis         ....       0.038 sec  (  0.1%)
Initial guess               ....       0.173 sec  (  0.6%)
Orbital Transformation      ....       0.000 sec  (  0.0%)
Orbital Orthonormalization  ....       0.000 sec  (  0.0%)
DIIS solution               ....       0.034 sec  (  0.1%)
SOSCF solution              ....       0.026 sec  (  0.1%)
Grid generation             ....      12.161 sec  ( 43.3%)

-------------------------   --------------------
FINAL SINGLE POINT ENERGY       -76.359862171369
-------------------------   --------------------



           ************************************************************
           *        Program running with 36 parallel MPI-processes    *
           *              working on a common directory               *
           ************************************************************
------------------------------------------------------------------------------
                         ORCA SCF GRADIENT CALCULATION
------------------------------------------------------------------------------

Gradient of the Kohn-Sham DFT energy:
Kohn-Sham wavefunction type      ... RKS
Hartree-Fock exchange scaling    ...    0.000
Number of operators              ...    1
Number of atoms                  ...    3
Basis set dimensions             ...   24
Integral neglect threshold       ... 2.5e-11
Integral primitive cutoff        ... 2.5e-12

Nuclear repulsion gradient       ... done
One Electron Gradient            ... done
Pre-screening matrix             ... done
RI-J gradient                    ... done
Exchange-correlation gradient    ... done

------------------
CARTESIAN GRADIENT
------------------

   1   O   :   -0.000000133    0.000000045    0.025758112
   2   H   :   -0.006715669    0.000000012   -0.012878952
   3   H   :    0.006715802   -0.000000057   -0.012879160

Difference to translation invariance:
           :    0.0000000000    0.0000000000   -0.0000000000

Norm of the cartesian gradient     ...    0.0329457538
RMS gradient                       ...    0.0109819179
MAX gradient                       ...    0.0257581119

-------
TIMINGS
-------

Total SCF gradient time            ...        0.351 sec

One electron gradient       ....       0.001 sec  (  0.4%)
Prescreening matrices       ....       0.002 sec  (  0.7%)
RI-J Coulomb gradient       ....       0.131 sec  ( 37.4%)
XC gradient                 ....       0.016 sec  (  4.6%)
------------------------------------------------------------------------------
                         ORCA GEOMETRY RELAXATION STEP
------------------------------------------------------------------------------

Reading the OPT-File                    .... done
Getting information on internals        .... done
Copying old internal coords+grads       .... done
Making the new internal coordinates     .... (new redundants).... done
Validating the new internal coordinates .... (new redundants).... done
Calculating the B-matrix                .... done
Calculating the G,G- and P matrices     .... done
Transforming gradient to internals      .... done
Projecting the internal gradient        .... done
Number of atoms                         ....   3
Number of internal coordinates          ....   3
Current Energy                          ....   -76.359862171 Eh
Current gradient norm                   ....     0.032945754 Eh/bohr
Maximum allowed component of the step   ....  0.300
Current trust radius                    ....  0.300
Evaluating the initial hessian          ....  (Almloef) done
Projecting the Hessian                  .... done
Forming the augmented Hessian           .... done
Diagonalizing the augmented Hessian     .... done
Last element of RFO vector              ....  0.998738154
Lowest eigenvalues of augmented Hessian:
 -0.001065763  0.322567667  0.521540089
Length of the computed step             ....  0.050283959
The final length of the internal step   ....  0.050283959
Converting the step to cartesian space:
 Initial RMS(Int)=    0.0290314575
Transforming coordinates:
 Iter   0:  RMS(Cart)=    0.0111477976 RMS(Int)=    0.0289965088
 Iter   1:  RMS(Cart)=    0.0002384770 RMS(Int)=    0.0003625018
 Iter   2:  RMS(Cart)=    0.0000034842 RMS(Int)=    0.0000065159
 Iter   3:  RMS(Cart)=    0.0000000409 RMS(Int)=    0.0000000806
done
Storing new coordinates                 .... done

                                .--------------------.
          ----------------------|Geometry convergence|-------------------------
          Item                value                   Tolerance       Converged
          ---------------------------------------------------------------------
          RMS gradient        0.0125744157            0.0001000000      NO
          MAX gradient        0.0130462867            0.0003000000      NO
          RMS step            0.0290314575            0.0020000000      NO
          MAX step            0.0358065468            0.0040000000      NO
          ........................................................
          Max(Bonds)      0.0132      Max(Angles)    2.05
          Max(Dihed)        0.00      Max(Improp)    0.00
          ---------------------------------------------------------------------

The optimization has not yet converged - more geometry cycles are needed


    ---------------------------------------------------------------------------
                         Redundant Internal Coordinates
                            (Angstroem and degrees)

        Definition                    Value    dE/dq     Step     New-Value
    ----------------------------------------------------------------------------
     1. B(H   1,O   0)                0.9592 -0.013046  0.0132    0.9724   
     2. B(H   2,O   0)                0.9592 -0.013046  0.0132    0.9724   
     3. A(H   1,O   0,H   2)          107.24  0.011573   -2.05    105.18   
    ----------------------------------------------------------------------------

         *************************************************************
         *                GEOMETRY OPTIMIZATION CYCLE   2            *
         *************************************************************
---------------------------------
CARTESIAN COORDINATES (ANGSTROEM)
---------------------------------
  O     -0.000001   -0.000001   -0.393806
  H      0.772393   -0.000004    0.196901
  H     -0.772391    0.000004    0.196906

----------------------------
CARTESIAN COORDINATES (A.U.)
----------------------------
  NO LB      ZA    FRAG     MASS         X           Y           Z
   0 O     8.0000    0    15.999   -0.000002   -0.000002   -0.744186
   1 H     1.0000    0     1.008    1.459611   -0.000008    0.372088
   2 H     1.0000    0     1.008   -1.459607    0.000008    0.372098

--------------------------------
INTERNAL COORDINATES (ANGSTROEM)
--------------------------------
 O      0   0   0     0.000000000000     0.00000000     0.00000000
 H      1   0   0     0.972382230661     0.00000000     0.00000000
 H      1   2   0     0.972382240106   105.18395147     0.00000000

---------------------------
INTERNAL COORDINATES (A.U.)
---------------------------
 O      0   0   0     0.000000000000     0.00000000     0.00000000
 H      1   0   0     1.837536113442     0.00000000     0.00000000
 H      1   2   0     1.837536131289   105.18395147     0.00000000



           ************************************************************
           *        Program running with 36 parallel MPI-processes    *
           *              working on a common directory               *
           ************************************************************
 One Electron integrals                  ... done
 Pre-screening matrix                    ... done


           ************************************************************
           *        Program running with 36 parallel MPI-processes    *
           *              working on a common directory               *
           ************************************************************

Diagonalization of the overlap matrix:
Smallest eigenvalue                        ... 3.884e-02
Time for diagonalization                   ...    0.001 sec
Threshold for overlap eigenvalues          ... 1.000e-08
Number of eigenvalues below threshold      ... 0
Time for construction of square roots      ...    0.008 sec
Total time needed                          ...    0.009 sec

-------------------
DFT GRID GENERATION
-------------------

General Integration Accuracy     IntAcc      ...  5.010
Radial Grid Type                 RadialGrid  ... Gauss-Chebyshev
Angular Grid (max. acc.)         AngularGrid ... Lebedev-434
Angular grid pruning method      GridPruning ... 3 (G Style)
Weight generation scheme         WeightScheme... Becke
Basis function cutoff            BFCut       ...    1.0000e-11
Integration weight cutoff        WCut        ...    1.0000e-14
Grids for H and He will be reduced by one unit

# of grid points (after initial pruning)     ...  24226 (   0.0 sec)
# of grid points (after weights+screening)   ...  24014 (   0.0 sec)
nearest neighbour list constructed           ...    0.0 sec
Grid point re-assignment to atoms done       ...    0.0 sec
Grid point division into batches done        ...    0.2 sec
Reduced shell lists constructed in    0.2 sec

Total number of grid points                  ...    24014
Total number of batches                      ...      377
Average number of points per batch           ...       63
Average number of grid points per atom       ...     8005
Average number of shells per batch           ...     1.50 (12.50%)
Average number of basis functions per batch  ...     1.83 ( 7.64%)
Average number of large shells per batch     ...     1.33 (88.89%)
Average number of large basis fcns per batch ...     1.67 (90.91%)
Maximum spatial batch extension              ...  13.72, 16.27, 10.71 au
Average spatial batch extension              ...   0.30,  0.35,  0.24 au

Time for grid setup =    0.239 sec

--------------
SCF ITERATIONS
--------------
ITER       Energy         Delta-E        Max-DP      RMS-DP      [F,P]     Damp
               ***  Starting incremental Fock matrix formation  ***
  0    -76.3603775505   0.000000000000 0.00324461  0.00034534  0.0085278 0.7000
                      *** Initiating the SOSCF procedure ***
                      *** Re-Reading the Fockian *** 
                      *** Removing any level shift *** 
ITER      Energy       Delta-E        Grad      Rot      Max-DP    RMS-DP
  1    -76.36043201  -0.0000544571  0.000929  0.000929  0.009299  0.001015
               *** Restarting incremental Fock matrix formation ***
  2    -76.36055094  -0.0001189291  0.001385  0.001365  0.003104  0.000292
  3    -76.36054376   0.0000071802  0.002123  0.000956  0.001874  0.000199
  4    -76.36055681  -0.0000130560  0.000118  0.000100  0.000172  0.000021
  5    -76.36055686  -0.0000000492  0.000063  0.000032  0.000050  0.000006
                  ***Gradient check signals convergence***
              ***Rediagonalizing the Fockian in SOSCF/NRSCF***

               *****************************************************
               *                     SUCCESS                       *
               *           SCF CONVERGED AFTER   6 CYCLES          *
               *****************************************************

Total Energy       :          -76.36055688 Eh           -2077.87639 eV
  Last Energy change         ...   -1.5692e-08  Tolerance :   1.0000e-08
  Last MAX-Density change    ...    1.9926e-06  Tolerance :   1.0000e-07
             **** THE GBW FILE WAS UPDATED (h2o.gbw) ****
             **** DENSITY FILE WAS UPDATED (h2o.scfp.tmp) ****
             **** ENERGY FILE WAS UPDATED (h2o.en.tmp) ****
Total SCF time: 0 days 0 hours 0 min 6 sec 

-------------------------   --------------------
FINAL SINGLE POINT ENERGY       -76.360556877290
-------------------------   --------------------



           ************************************************************
           *        Program running with 36 parallel MPI-processes    *
           *              working on a common directory               *
           ************************************************************
------------------------------------------------------------------------------
                         ORCA SCF GRADIENT CALCULATION
------------------------------------------------------------------------------

Gradient of the Kohn-Sham DFT energy:
Kohn-Sham wavefunction type      ... RKS
Hartree-Fock exchange scaling    ...    0.000
Number of operators              ...    1
Number of atoms                  ...    3
Basis set dimensions             ...   24
Integral neglect threshold       ... 2.5e-11
Integral primitive cutoff        ... 2.5e-12

Nuclear repulsion gradient       ... done
One Electron Gradient            ... done
Pre-screening matrix             ... done
RI-J gradient                    ... done
Exchange-correlation gradient    ... done

------------------
CARTESIAN GRADIENT
------------------

   1   O   :    0.000000033    0.000000014    0.008032454
   2   H   :    0.001768404   -0.000000016   -0.004016236
   3   H   :   -0.001768437    0.000000002   -0.004016219

Difference to translation invariance:
           :   -0.0000000000    0.0000000000    0.0000000000

Norm of the cartesian gradient     ...    0.0101506208
RMS gradient                       ...    0.0033835403
MAX gradient                       ...    0.0080324542

-------
TIMINGS
-------

Total SCF gradient time            ...        0.335 sec

One electron gradient       ....       0.002 sec  (  0.5%)
Prescreening matrices       ....       0.002 sec  (  0.7%)
RI-J Coulomb gradient       ....       0.117 sec  ( 34.8%)
XC gradient                 ....       0.012 sec  (  3.7%)
------------------------------------------------------------------------------
                         ORCA GEOMETRY RELAXATION STEP
------------------------------------------------------------------------------

Reading the OPT-File                    .... done
Getting information on internals        .... done
Copying old internal coords+grads       .... done
Making the new internal coordinates     .... (new redundants).... done
Validating the new internal coordinates .... (new redundants).... done
Calculating the B-matrix                .... done
Calculating the G,G- and P matrices     .... done
Transforming gradient to internals      .... done
Projecting the internal gradient        .... done
Number of atoms                         ....   3
Number of internal coordinates          ....   3
Current Energy                          ....   -76.360556877 Eh
Current gradient norm                   ....     0.010150621 Eh/bohr
Maximum allowed component of the step   ....  0.300
Current trust radius                    ....  0.300
Updating the Hessian (BFGS)             .... done
Forming the augmented Hessian           .... done
Diagonalizing the augmented Hessian     .... done
Last element of RFO vector              ....  0.999080638
Lowest eigenvalues of augmented Hessian:
 -0.000341467  0.185178301  0.521540089
Length of the computed step             ....  0.042909944
The final length of the internal step   ....  0.042909944
Converting the step to cartesian space:
 Initial RMS(Int)=    0.0247740677
Transforming coordinates:
 Iter   0:  RMS(Cart)=    0.0125441117 RMS(Int)=    0.0247585968
 Iter   1:  RMS(Cart)=    0.0001961512 RMS(Int)=    0.0003374245
 Iter   2:  RMS(Cart)=    0.0000023614 RMS(Int)=    0.0000054796
 Iter   3:  RMS(Cart)=    0.0000000875 RMS(Int)=    0.0000001417
done
Storing new coordinates                 .... done

                                .--------------------.
          ----------------------|Geometry convergence|-------------------------
          Item                value                   Tolerance       Converged
          ---------------------------------------------------------------------
          Energy change      -0.0006947059            0.0000050000      NO
          RMS gradient        0.0046024802            0.0001000000      NO
          MAX gradient        0.0078361737            0.0003000000      NO
          RMS step            0.0247740677            0.0020000000      NO
          MAX step            0.0416399926            0.0040000000      NO
          ........................................................
          Max(Bonds)      0.0039      Max(Angles)    2.39
          Max(Dihed)        0.00      Max(Improp)    0.00
          ---------------------------------------------------------------------

The optimization has not yet converged - more geometry cycles are needed


    ---------------------------------------------------------------------------
                         Redundant Internal Coordinates
                            (Angstroem and degrees)

        Definition                    Value    dE/dq     Step     New-Value
    ----------------------------------------------------------------------------
     1. B(H   1,O   0)                0.9724 -0.001035  0.0039    0.9763   
     2. B(H   2,O   0)                0.9724 -0.001035  0.0039    0.9763   
     3. A(H   1,O   0,H   2)          105.18  0.007836   -2.39    102.80   
    ----------------------------------------------------------------------------

         *************************************************************
         *                GEOMETRY OPTIMIZATION CYCLE   3            *
         *************************************************************
---------------------------------
CARTESIAN COORDINATES (ANGSTROEM)
---------------------------------
  O     -0.000001   -0.000001   -0.406054
  H      0.762958   -0.000004    0.203024
  H     -0.762956    0.000004    0.203029

----------------------------
CARTESIAN COORDINATES (A.U.)
----------------------------
  NO LB      ZA    FRAG     MASS         X           Y           Z
   0 O     8.0000    0    15.999   -0.000002   -0.000002   -0.767331
   1 H     1.0000    0     1.008    1.441782   -0.000007    0.383661
   2 H     1.0000    0     1.008   -1.441778    0.000008    0.383670

--------------------------------
INTERNAL COORDINATES (ANGSTROEM)
--------------------------------
 O      0   0   0     0.000000000000     0.00000000     0.00000000
 H      1   0   0     0.976259574853     0.00000000     0.00000000
 H      1   2   0     0.976259617030   102.79815581     0.00000000

---------------------------
INTERNAL COORDINATES (A.U.)
---------------------------
 O      0   0   0     0.000000000000     0.00000000     0.00000000
 H      1   0   0     1.844863232091     0.00000000     0.00000000
 H      1   2   0     1.844863311793   102.79815581     0.00000000



           ************************************************************
           *        Program running with 36 parallel MPI-processes    *
           *              working on a common directory               *
           ************************************************************
 One Electron integrals                  ... done
 Pre-screening matrix                    ... done


           ************************************************************
           *        Program running with 36 parallel MPI-processes    *
           *              working on a common directory               *
           ************************************************************

Diagonalization of the overlap matrix:
Smallest eigenvalue                        ... 3.860e-02
Time for diagonalization                   ...    0.001 sec
Threshold for overlap eigenvalues          ... 1.000e-08
Number of eigenvalues below threshold      ... 0
Time for construction of square roots      ...    0.005 sec
Total time needed                          ...    0.006 sec

-------------------
DFT GRID GENERATION
-------------------

General Integration Accuracy     IntAcc      ...  5.010
Radial Grid Type                 RadialGrid  ... Gauss-Chebyshev
Angular Grid (max. acc.)         AngularGrid ... Lebedev-434
Angular grid pruning method      GridPruning ... 3 (G Style)
Weight generation scheme         WeightScheme... Becke
Basis function cutoff            BFCut       ...    1.0000e-11
Integration weight cutoff        WCut        ...    1.0000e-14
Grids for H and He will be reduced by one unit

# of grid points (after initial pruning)     ...  24226 (   0.0 sec)
# of grid points (after weights+screening)   ...  24018 (   0.0 sec)
nearest neighbour list constructed           ...    0.0 sec
Grid point re-assignment to atoms done       ...    0.0 sec
Grid point division into batches done        ...    0.2 sec
Reduced shell lists constructed in    0.2 sec

Total number of grid points                  ...    24018
Total number of batches                      ...      376
Average number of points per batch           ...       63
Average number of grid points per atom       ...     8006
Average number of shells per batch           ...     1.50 (12.50%)
Average number of basis functions per batch  ...     1.83 ( 7.64%)
Average number of large shells per batch     ...     1.33 (88.89%)
Average number of large basis fcns per batch ...     1.67 (90.91%)
Maximum spatial batch extension              ...  13.72, 16.27, 10.75 au
Average spatial batch extension              ...   0.31,  0.35,  0.24 au

Time for grid setup =    0.239 sec

--------------
SCF ITERATIONS
--------------
ITER       Energy         Delta-E        Max-DP      RMS-DP      [F,P]     Damp
               ***  Starting incremental Fock matrix formation  ***
  0    -76.3606564007   0.000000000000 0.00245373  0.00027701  0.0047050 0.7000
                      *** Initiating the SOSCF procedure ***
                      *** Re-Reading the Fockian *** 
                      *** Removing any level shift *** 
ITER      Energy       Delta-E        Grad      Rot      Max-DP    RMS-DP
  1    -76.36068647  -0.0000300684  0.000664  0.000664  0.007151  0.000813
               *** Restarting incremental Fock matrix formation ***
  2    -76.36075721  -0.0000707443  0.000556  0.000507  0.001258  0.000121
  3    -76.36075611   0.0000010992  0.000870  0.000405  0.000772  0.000083
  4    -76.36075832  -0.0000022056  0.000052  0.000052  0.000075  0.000009
  5    -76.36075833  -0.0000000094  0.000027  0.000012  0.000019  0.000003
                 **** Energy Check signals convergence ****
              ***Rediagonalizing the Fockian in SOSCF/NRSCF***

               *****************************************************
               *                     SUCCESS                       *
               *           SCF CONVERGED AFTER   6 CYCLES          *
               *****************************************************

Total Energy       :          -76.36075833 Eh           -2077.88187 eV
  Last Energy change         ...   -3.0393e-09  Tolerance :   1.0000e-08
  Last MAX-Density change    ...    9.1045e-07  Tolerance :   1.0000e-07
             **** THE GBW FILE WAS UPDATED (h2o.gbw) ****
             **** DENSITY FILE WAS UPDATED (h2o.scfp.tmp) ****
             **** ENERGY FILE WAS UPDATED (h2o.en.tmp) ****
Total SCF time: 0 days 0 hours 0 min 3 sec 

-------------------------   --------------------
FINAL SINGLE POINT ENERGY       -76.360758332298
-------------------------   --------------------



           ************************************************************
           *        Program running with 36 parallel MPI-processes    *
           *              working on a common directory               *
           ************************************************************
------------------------------------------------------------------------------
                         ORCA SCF GRADIENT CALCULATION
------------------------------------------------------------------------------

Gradient of the Kohn-Sham DFT energy:
Kohn-Sham wavefunction type      ... RKS
Hartree-Fock exchange scaling    ...    0.000
Number of operators              ...    1
Number of atoms                  ...    3
Basis set dimensions             ...   24
Integral neglect threshold       ... 2.5e-11
Integral primitive cutoff        ... 2.5e-12

Nuclear repulsion gradient       ... done
One Electron Gradient            ... done
Pre-screening matrix             ... done
RI-J gradient                    ... done
Exchange-correlation gradient    ... done

------------------
CARTESIAN GRADIENT
------------------

   1   O   :    0.000000031   -0.000000000   -0.000024192
   2   H   :    0.001657789   -0.000000009    0.000012078
   3   H   :   -0.001657821    0.000000009    0.000012114

Difference to translation invariance:
           :   -0.0000000000    0.0000000000    0.0000000000

Norm of the cartesian gradient     ...    0.0023446775
RMS gradient                       ...    0.0007815592
MAX gradient                       ...    0.0016578206

-------
TIMINGS
-------

Total SCF gradient time            ...        0.339 sec

One electron gradient       ....       0.001 sec  (  0.3%)
Prescreening matrices       ....       0.002 sec  (  0.7%)
RI-J Coulomb gradient       ....       0.118 sec  ( 34.9%)
XC gradient                 ....       0.013 sec  (  3.9%)
------------------------------------------------------------------------------
                         ORCA GEOMETRY RELAXATION STEP
------------------------------------------------------------------------------

Reading the OPT-File                    .... done
Getting information on internals        .... done
Copying old internal coords+grads       .... done
Making the new internal coordinates     .... (new redundants).... done
Validating the new internal coordinates .... (new redundants).... done
Calculating the B-matrix                .... done
Calculating the G,G- and P matrices     .... done
Transforming gradient to internals      .... done
Projecting the internal gradient        .... done
Number of atoms                         ....   3
Number of internal coordinates          ....   3
Current Energy                          ....   -76.360758332 Eh
Current gradient norm                   ....     0.002344678 Eh/bohr
Maximum allowed component of the step   ....  0.300
Current trust radius                    ....  0.300
Updating the Hessian (BFGS)             .... done
Forming the augmented Hessian           .... done
Diagonalizing the augmented Hessian     .... done
Last element of RFO vector              ....  0.999939165
Lowest eigenvalues of augmented Hessian:
 -0.000023576  0.149582692  0.521540089
Length of the computed step             ....  0.011030908
The final length of the internal step   ....  0.011030908
Converting the step to cartesian space:
 Initial RMS(Int)=    0.0063686977
Transforming coordinates:
 Iter   0:  RMS(Cart)=    0.0038992640 RMS(Int)=    0.0063692451
 Iter   1:  RMS(Cart)=    0.0000102536 RMS(Int)=    0.0000227752
 Iter   2:  RMS(Cart)=    0.0000000608 RMS(Int)=    0.0000000955
done
Storing new coordinates                 .... done

                                .--------------------.
          ----------------------|Geometry convergence|-------------------------
          Item                value                   Tolerance       Converged
          ---------------------------------------------------------------------
          Energy change      -0.0002014550            0.0000050000      NO
          RMS gradient        0.0015243617            0.0001000000      NO
          MAX gradient        0.0018906865            0.0003000000      NO
          RMS step            0.0063686977            0.0020000000      NO
          MAX step            0.0109150079            0.0040000000      NO
          ........................................................
          Max(Bonds)      0.0006      Max(Angles)    0.63
          Max(Dihed)        0.00      Max(Improp)    0.00
          ---------------------------------------------------------------------

The optimization has not yet converged - more geometry cycles are needed


    ---------------------------------------------------------------------------
                         Redundant Internal Coordinates
                            (Angstroem and degrees)

        Definition                    Value    dE/dq     Step     New-Value
    ----------------------------------------------------------------------------
     1. B(H   1,O   0)                0.9763  0.001303 -0.0006    0.9757   
     2. B(H   2,O   0)                0.9763  0.001303 -0.0006    0.9757   
     3. A(H   1,O   0,H   2)          102.80  0.001891   -0.63    102.17   
    ----------------------------------------------------------------------------

         *************************************************************
         *                GEOMETRY OPTIMIZATION CYCLE   4            *
         *************************************************************
---------------------------------
CARTESIAN COORDINATES (ANGSTROEM)
---------------------------------
  O     -0.000001   -0.000001   -0.408574
  H      0.759158   -0.000004    0.204284
  H     -0.759156    0.000004    0.204289

----------------------------
CARTESIAN COORDINATES (A.U.)
----------------------------
  NO LB      ZA    FRAG     MASS         X           Y           Z
   0 O     8.0000    0    15.999   -0.000002   -0.000002   -0.772092
   1 H     1.0000    0     1.008    1.434601   -0.000007    0.386042
   2 H     1.0000    0     1.008   -1.434598    0.000007    0.386051

--------------------------------
INTERNAL COORDINATES (ANGSTROEM)
--------------------------------
 O      0   0   0     0.000000000000     0.00000000     0.00000000
 H      1   0   0     0.975662821809     0.00000000     0.00000000
 H      1   2   0     0.975662834969   102.17277194     0.00000000

---------------------------
INTERNAL COORDINATES (A.U.)
---------------------------
 O      0   0   0     0.000000000000     0.00000000     0.00000000
 H      1   0   0     1.843735532268     0.00000000     0.00000000
 H      1   2   0     1.843735557136   102.17277194     0.00000000



           ************************************************************
           *        Program running with 36 parallel MPI-processes    *
           *              working on a common directory               *
           ************************************************************
 One Electron integrals                  ... done
 Pre-screening matrix                    ... done


           ************************************************************
           *        Program running with 36 parallel MPI-processes    *
           *              working on a common directory               *
           ************************************************************

Diagonalization of the overlap matrix:
Smallest eigenvalue                        ... 3.842e-02
Time for diagonalization                   ...    0.001 sec
Threshold for overlap eigenvalues          ... 1.000e-08
Number of eigenvalues below threshold      ... 0
Time for construction of square roots      ...    0.008 sec
Total time needed                          ...    0.009 sec

-------------------
DFT GRID GENERATION
-------------------

General Integration Accuracy     IntAcc      ...  5.010
Radial Grid Type                 RadialGrid  ... Gauss-Chebyshev
Angular Grid (max. acc.)         AngularGrid ... Lebedev-434
Angular grid pruning method      GridPruning ... 3 (G Style)
Weight generation scheme         WeightScheme... Becke
Basis function cutoff            BFCut       ...    1.0000e-11
Integration weight cutoff        WCut        ...    1.0000e-14
Grids for H and He will be reduced by one unit

# of grid points (after initial pruning)     ...  24226 (   0.0 sec)
# of grid points (after weights+screening)   ...  24018 (   0.0 sec)
nearest neighbour list constructed           ...    0.0 sec
Grid point re-assignment to atoms done       ...    0.0 sec
Grid point division into batches done        ...    0.2 sec
Reduced shell lists constructed in    0.2 sec

Total number of grid points                  ...    24018
Total number of batches                      ...      376
Average number of points per batch           ...       63
Average number of grid points per atom       ...     8006
Average number of shells per batch           ...     1.50 (12.50%)
Average number of basis functions per batch  ...     1.83 ( 7.64%)
Average number of large shells per batch     ...     1.33 (88.89%)
Average number of large basis fcns per batch ...     1.67 (90.91%)
Maximum spatial batch extension              ...  13.72, 16.27, 10.75 au
Average spatial batch extension              ...   0.31,  0.35,  0.24 au

Time for grid setup =    0.269 sec

--------------
SCF ITERATIONS
--------------
ITER       Energy         Delta-E        Max-DP      RMS-DP      [F,P]     Damp
               ***  Starting incremental Fock matrix formation  ***
                      *** Initiating the SOSCF procedure ***
                      *** Re-Reading the Fockian *** 
                      *** Removing any level shift *** 
ITER      Energy       Delta-E        Grad      Rot      Max-DP    RMS-DP
  0    -76.36076495 -76.3607649548  0.000827  0.000827  0.002301  0.000235
               *** Restarting incremental Fock matrix formation ***
  1    -76.36077092  -0.0000059665  0.000141  0.000159  0.000437  0.000044
  2    -76.36077107  -0.0000001527  0.000019  0.000028  0.000053  0.000005
  3    -76.36077107   0.0000000017  0.000036  0.000015  0.000031  0.000003
                 **** Energy Check signals convergence ****
              ***Rediagonalizing the Fockian in SOSCF/NRSCF***

               *****************************************************
               *                     SUCCESS                       *
               *           SCF CONVERGED AFTER   4 CYCLES          *
               *****************************************************

Total Energy       :          -76.36077108 Eh           -2077.88222 eV
  Last Energy change         ...   -3.3808e-09  Tolerance :   1.0000e-08
  Last MAX-Density change    ...    2.5084e-06  Tolerance :   1.0000e-07
             **** THE GBW FILE WAS UPDATED (h2o.gbw) ****
             **** DENSITY FILE WAS UPDATED (h2o.scfp.tmp) ****
             **** ENERGY FILE WAS UPDATED (h2o.en.tmp) ****
Total SCF time: 0 days 0 hours 0 min 2 sec 

-------------------------   --------------------
FINAL SINGLE POINT ENERGY       -76.360771075660
-------------------------   --------------------



           ************************************************************
           *        Program running with 36 parallel MPI-processes    *
           *              working on a common directory               *
           ************************************************************
------------------------------------------------------------------------------
                         ORCA SCF GRADIENT CALCULATION
------------------------------------------------------------------------------

Gradient of the Kohn-Sham DFT energy:
Kohn-Sham wavefunction type      ... RKS
Hartree-Fock exchange scaling    ...    0.000
Number of operators              ...    1
Number of atoms                  ...    3
Basis set dimensions             ...   24
Integral neglect threshold       ... 2.5e-11
Integral primitive cutoff        ... 2.5e-12

Nuclear repulsion gradient       ... done
One Electron Gradient            ... done
Pre-screening matrix             ... done
RI-J gradient                    ... done
Exchange-correlation gradient    ... done

------------------
CARTESIAN GRADIENT
------------------

   1   O   :    0.000000007   -0.000000001   -0.000431396
   2   H   :    0.000342644   -0.000000001    0.000215694
   3   H   :   -0.000342651    0.000000002    0.000215703

Difference to translation invariance:
           :   -0.0000000000   -0.0000000000    0.0000000000

Norm of the cartesian gradient     ...    0.0007169162
RMS gradient                       ...    0.0002389721
MAX gradient                       ...    0.0004313964

-------
TIMINGS
-------

Total SCF gradient time            ...        0.330 sec

One electron gradient       ....       0.001 sec  (  0.3%)
Prescreening matrices       ....       0.002 sec  (  0.7%)
RI-J Coulomb gradient       ....       0.113 sec  ( 34.2%)
XC gradient                 ....       0.012 sec  (  3.7%)
------------------------------------------------------------------------------
                         ORCA GEOMETRY RELAXATION STEP
------------------------------------------------------------------------------

Reading the OPT-File                    .... done
Getting information on internals        .... done
Copying old internal coords+grads       .... done
Making the new internal coordinates     .... (new redundants).... done
Validating the new internal coordinates .... (new redundants).... done
Calculating the B-matrix                .... done
Calculating the G,G- and P matrices     .... done
Transforming gradient to internals      .... done
Projecting the internal gradient        .... done
Number of atoms                         ....   3
Number of internal coordinates          ....   3
Current Energy                          ....   -76.360771076 Eh
Current gradient norm                   ....     0.000716916 Eh/bohr
Maximum allowed component of the step   ....  0.300
Current trust radius                    ....  0.300
Updating the Hessian (BFGS)             .... done
Forming the augmented Hessian           .... done
Diagonalizing the augmented Hessian     .... done
Last element of RFO vector              ....  0.999999450
Lowest eigenvalues of augmented Hessian:
 -0.000000595  0.157043049  0.521540089
Length of the computed step             ....  0.001048864
The final length of the internal step   ....  0.001048864
Converting the step to cartesian space:
 Initial RMS(Int)=    0.0006055617
Transforming coordinates:
 Iter   0:  RMS(Cart)=    0.0003524554 RMS(Int)=    0.0006055651
 Iter   1:  RMS(Cart)=    0.0000000381 RMS(Int)=    0.0000000752
done
Storing new coordinates                 .... done

                                .--------------------.
          ----------------------|Geometry convergence|-------------------------
          Item                value                   Tolerance       Converged
          ---------------------------------------------------------------------
          Energy change      -0.0000127434            0.0000050000      NO
          RMS gradient        0.0003321697            0.0001000000      NO
          MAX gradient        0.0004021080            0.0003000000      NO
          RMS step            0.0006055617            0.0020000000      YES
          MAX step            0.0007044973            0.0040000000      YES
          ........................................................
          Max(Bonds)      0.0004      Max(Angles)    0.02
          Max(Dihed)        0.00      Max(Improp)    0.00
          ---------------------------------------------------------------------

The optimization has not yet converged - more geometry cycles are needed


    ---------------------------------------------------------------------------
                         Redundant Internal Coordinates
                            (Angstroem and degrees)

        Definition                    Value    dE/dq     Step     New-Value
    ----------------------------------------------------------------------------
     1. B(H   1,O   0)                0.9757  0.000402 -0.0004    0.9753   
     2. B(H   2,O   0)                0.9757  0.000402 -0.0004    0.9753   
     3. A(H   1,O   0,H   2)          102.17  0.000087   -0.02    102.15   
    ----------------------------------------------------------------------------

         *************************************************************
         *                GEOMETRY OPTIMIZATION CYCLE   5            *
         *************************************************************
---------------------------------
CARTESIAN COORDINATES (ANGSTROEM)
---------------------------------
  O     -0.000001   -0.000001   -0.408501
  H      0.758768   -0.000004    0.204248
  H     -0.758766    0.000004    0.204253

----------------------------
CARTESIAN COORDINATES (A.U.)
----------------------------
  NO LB      ZA    FRAG     MASS         X           Y           Z
   0 O     8.0000    0    15.999   -0.000002   -0.000002   -0.771954
   1 H     1.0000    0     1.008    1.433863   -0.000007    0.385972
   2 H     1.0000    0     1.008   -1.433860    0.000007    0.385982

--------------------------------
INTERNAL COORDINATES (ANGSTROEM)
--------------------------------
 O      0   0   0     0.000000000000     0.00000000     0.00000000
 H      1   0   0     0.975290028324     0.00000000     0.00000000
 H      1   2   0     0.975290031038   102.15398541     0.00000000

---------------------------
INTERNAL COORDINATES (A.U.)
---------------------------
 O      0   0   0     0.000000000000     0.00000000     0.00000000
 H      1   0   0     1.843031054677     0.00000000     0.00000000
 H      1   2   0     1.843031059805   102.15398541     0.00000000



           ************************************************************
           *        Program running with 36 parallel MPI-processes    *
           *              working on a common directory               *
           ************************************************************
 One Electron integrals                  ... done
 Pre-screening matrix                    ... done


           ************************************************************
           *        Program running with 36 parallel MPI-processes    *
           *              working on a common directory               *
           ************************************************************

Diagonalization of the overlap matrix:
Smallest eigenvalue                        ... 3.838e-02
Time for diagonalization                   ...    0.001 sec
Threshold for overlap eigenvalues          ... 1.000e-08
Number of eigenvalues below threshold      ... 0
Time for construction of square roots      ...    0.006 sec
Total time needed                          ...    0.006 sec

-------------------
DFT GRID GENERATION
-------------------

General Integration Accuracy     IntAcc      ...  5.010
Radial Grid Type                 RadialGrid  ... Gauss-Chebyshev
Angular Grid (max. acc.)         AngularGrid ... Lebedev-434
Angular grid pruning method      GridPruning ... 3 (G Style)
Weight generation scheme         WeightScheme... Becke
Basis function cutoff            BFCut       ...    1.0000e-11
Integration weight cutoff        WCut        ...    1.0000e-14
Grids for H and He will be reduced by one unit

# of grid points (after initial pruning)     ...  24226 (   0.0 sec)
# of grid points (after weights+screening)   ...  24018 (   0.0 sec)
nearest neighbour list constructed           ...    0.0 sec
Grid point re-assignment to atoms done       ...    0.0 sec
Grid point division into batches done        ...    0.2 sec
Reduced shell lists constructed in    0.2 sec

Total number of grid points                  ...    24018
Total number of batches                      ...      376
Average number of points per batch           ...       63
Average number of grid points per atom       ...     8006
Average number of shells per batch           ...     1.50 (12.50%)
Average number of basis functions per batch  ...     1.83 ( 7.64%)
Average number of large shells per batch     ...     1.33 (88.89%)
Average number of large basis fcns per batch ...     1.67 (90.91%)
Maximum spatial batch extension              ...  13.72, 16.27, 10.75 au
Average spatial batch extension              ...   0.31,  0.35,  0.24 au

Time for grid setup =    0.224 sec

--------------
SCF ITERATIONS
--------------
ITER       Energy         Delta-E        Max-DP      RMS-DP      [F,P]     Damp
               ***  Starting incremental Fock matrix formation  ***
                      *** Initiating the SOSCF procedure ***
                      *** Re-Reading the Fockian *** 
                      *** Removing any level shift *** 
ITER      Energy       Delta-E        Grad      Rot      Max-DP    RMS-DP
  0    -76.36077133 -76.3607713253  0.000102  0.000102  0.000180  0.000024
               *** Restarting incremental Fock matrix formation ***
  1    -76.36077139  -0.0000000696  0.000049  0.000044  0.000113  0.000010
  2    -76.36077139   0.0000000065  0.000069  0.000032  0.000062  0.000007
  3    -76.36077140  -0.0000000140  0.000003  0.000007  0.000006  0.000001
                 **** Energy Check signals convergence ****
              ***Rediagonalizing the Fockian in SOSCF/NRSCF***

               *****************************************************
               *                     SUCCESS                       *
               *           SCF CONVERGED AFTER   4 CYCLES          *
               *****************************************************

Total Energy       :          -76.36077140 Eh           -2077.88223 eV
  Last Energy change         ...   -3.9473e-10  Tolerance :   1.0000e-08
  Last MAX-Density change    ...    1.3381e-06  Tolerance :   1.0000e-07
             **** THE GBW FILE WAS UPDATED (h2o.gbw) ****
             **** DENSITY FILE WAS UPDATED (h2o.scfp.tmp) ****
             **** ENERGY FILE WAS UPDATED (h2o.en.tmp) ****
Total SCF time: 0 days 0 hours 0 min 2 sec 

-------------------------   --------------------
FINAL SINGLE POINT ENERGY       -76.360771402694
-------------------------   --------------------



           ************************************************************
           *        Program running with 36 parallel MPI-processes    *
           *              working on a common directory               *
           ************************************************************
------------------------------------------------------------------------------
                         ORCA SCF GRADIENT CALCULATION
------------------------------------------------------------------------------

Gradient of the Kohn-Sham DFT energy:
Kohn-Sham wavefunction type      ... RKS
Hartree-Fock exchange scaling    ...    0.000
Number of operators              ...    1
Number of atoms                  ...    3
Basis set dimensions             ...   24
Integral neglect threshold       ... 2.5e-11
Integral primitive cutoff        ... 2.5e-12

Nuclear repulsion gradient       ... done
One Electron Gradient            ... done
Pre-screening matrix             ... done
RI-J gradient                    ... done
Exchange-correlation gradient    ... done

------------------
CARTESIAN GRADIENT
------------------

   1   O   :    0.000000001   -0.000000000   -0.000063834
   2   H   :    0.000030841   -0.000000000    0.000031917
   3   H   :   -0.000030841    0.000000000    0.000031918

Difference to translation invariance:
           :   -0.0000000000   -0.0000000000   -0.0000000000

Norm of the cartesian gradient     ...    0.0000895241
RMS gradient                       ...    0.0000298414
MAX gradient                       ...    0.0000638343

-------
TIMINGS
-------

Total SCF gradient time            ...        0.338 sec

One electron gradient       ....       0.001 sec  (  0.3%)
Prescreening matrices       ....       0.002 sec  (  0.6%)
RI-J Coulomb gradient       ....       0.117 sec  ( 34.8%)
XC gradient                 ....       0.013 sec  (  3.8%)
------------------------------------------------------------------------------
                         ORCA GEOMETRY RELAXATION STEP
------------------------------------------------------------------------------

Reading the OPT-File                    .... done
Getting information on internals        .... done
Copying old internal coords+grads       .... done
Making the new internal coordinates     .... (new redundants).... done
Validating the new internal coordinates .... (new redundants).... done
Calculating the B-matrix                .... done
Calculating the G,G- and P matrices     .... done
Transforming gradient to internals      .... done
Projecting the internal gradient        .... done
Number of atoms                         ....   3
Number of internal coordinates          ....   3
Current Energy                          ....   -76.360771403 Eh
Current gradient norm                   ....     0.000089524 Eh/bohr
Maximum allowed component of the step   ....  0.300
Current trust radius                    ....  0.300
Updating the Hessian (BFGS)             .... done
Forming the augmented Hessian           .... done
Diagonalizing the augmented Hessian     .... done
Last element of RFO vector              ....  0.999999986
Lowest eigenvalues of augmented Hessian:
 -0.000000009  0.159304075  0.499587118
Length of the computed step             ....  0.000165600
The final length of the internal step   ....  0.000165600
Converting the step to cartesian space:
 Initial RMS(Int)=    0.0000956092
Transforming coordinates:
 Iter   0:  RMS(Cart)=    0.0000361309 RMS(Int)=    0.0000956094
 Iter   1:  RMS(Cart)=    0.0000000022 RMS(Int)=    0.0000000034
done
Storing new coordinates                 .... done

                                .--------------------.
          ----------------------|Geometry convergence|-------------------------
          Item                value                   Tolerance       Converged
          ---------------------------------------------------------------------
          Energy change      -0.0000003270            0.0000050000      YES
          RMS gradient        0.0000364294            0.0001000000      YES
          MAX gradient        0.0000440473            0.0003000000      YES
          RMS step            0.0000956092            0.0020000000      YES
          MAX step            0.0000964507            0.0040000000      YES
          ........................................................
          Max(Bonds)      0.0001      Max(Angles)    0.01
          Max(Dihed)        0.00      Max(Improp)    0.00
          ---------------------------------------------------------------------

                    ***********************HURRAY********************
                    ***        THE OPTIMIZATION HAS CONVERGED     ***
                    *************************************************


    ---------------------------------------------------------------------------
                         Redundant Internal Coordinates

                          --- Optimized Parameters ---  
                            (Angstroem and degrees)

        Definition                    OldVal   dE/dq     Step     FinalVal
    ----------------------------------------------------------------------------
     1. B(H   1,O   0)                0.9753  0.000044 -0.0001    0.9752   
     2. B(H   2,O   0)                0.9753  0.000044 -0.0001    0.9752   
     3. A(H   1,O   0,H   2)          102.15 -0.000010    0.01    102.16   
    ----------------------------------------------------------------------------
                 *******************************************************
                 *** FINAL ENERGY EVALUATION AT THE STATIONARY POINT ***
                 ***               (AFTER    5 CYCLES)               ***
                 *******************************************************
[...]
               *** Restarting incremental Fock matrix formation ***
  1    -76.36077141  -0.0000000018  0.000007  0.000007  0.000018  0.000002
  2    -76.36077141   0.0000000004  0.000010  0.000005  0.000010  0.000001
                 **** Energy Check signals convergence ****
              ***Rediagonalizing the Fockian in SOSCF/NRSCF***

               *****************************************************
               *                     SUCCESS                       *
               *           SCF CONVERGED AFTER   3 CYCLES          *
               *****************************************************


----------------
TOTAL SCF ENERGY
----------------

Total Energy       :          -76.36077141 Eh           -2077.88223 eV

Components:
Nuclear Repulsion  :            9.03051281 Eh             245.73275 eV
Electronic Energy  :          -85.39128421 Eh           -2323.61497 eV
One Electron Energy:         -122.78670241 Eh           -3341.19604 eV
Two Electron Energy:           37.39541820 Eh            1017.58106 eV

Virial components:
Potential Energy   :         -152.14455921 Eh           -4140.06393 eV
Kinetic Energy     :           75.78378781 Eh            2062.18171 eV
Virial Ratio       :            2.00761355


DFT components:
N(Alpha)           :        4.999999815029 electrons
N(Beta)            :        4.999999815029 electrons
N(Total)           :        9.999999630059 electrons
E(X)               :       -8.977953339528 Eh       
E(C)               :       -0.363677032445 Eh       
E(XC)              :       -9.341630371974 Eh       
DFET-embed. en.    :        0.000000000000 Eh       

---------------
SCF CONVERGENCE
---------------

  Last Energy change         ...   -1.7660e-10  Tolerance :   1.0000e-08
  Last MAX-Density change    ...    1.9920e-06  Tolerance :   1.0000e-07
  Last RMS-Density change    ...    2.3022e-07  Tolerance :   5.0000e-09
  Last Orbital Gradient      ...    6.5799e-07  Tolerance :   1.0000e-05
  Last Orbital Rotation      ...    1.9075e-06  Tolerance :   1.0000e-05

             **** THE GBW FILE WAS UPDATED (h2o.gbw) ****
             **** DENSITY FILE WAS UPDATED (h2o.scfp.tmp) ****
             **** ENERGY FILE WAS UPDATED (h2o.en.tmp) ****
----------------
ORBITAL ENERGIES
----------------

  NO   OCC          E(Eh)            E(eV) 
   0   2.0000     -18.761586      -510.5287 
   1   2.0000      -0.890675       -24.2365 
   2   2.0000      -0.455087       -12.3836 
   3   2.0000      -0.313324        -8.5260 
   4   2.0000      -0.232867        -6.3366 
   5   0.0000       0.029429         0.8008 
   6   0.0000       0.105712         2.8766 
   7   0.0000       0.507393        13.8069 
   8   0.0000       0.571161        15.5421 
   9   0.0000       0.862192        23.4614 
  10   0.0000       0.862680        23.4747 
  11   0.0000       0.955058        25.9884 
  12   0.0000       1.041533        28.3416 
  13   0.0000       1.286462        35.0064 
  14   0.0000       1.326593        36.0984 
  15   0.0000       1.473769        40.1033 
  16   0.0000       1.717415        46.7332 
  17   0.0000       2.100977        57.1705 
  18   0.0000       2.151270        58.5390 
  19   0.0000       2.866541        78.0025 
  20   0.0000       2.891631        78.6853 
  21   0.0000       3.079906        83.8085 
  22   0.0000       3.375880        91.8624 
  23   0.0000       3.720107       101.2293 

                    ********************************
                    * MULLIKEN POPULATION ANALYSIS *
                    ********************************

-----------------------
MULLIKEN ATOMIC CHARGES
-----------------------
   0 O :   -0.298606
   1 H :    0.149303
   2 H :    0.149303
Sum of atomic charges:   -0.0000000

--------------------------------
MULLIKEN REDUCED ORBITAL CHARGES
--------------------------------
  0 O s       :     3.702848  s :     3.702848
      pz      :     1.477824  p :     4.585334
      px      :     1.149091
      py      :     1.958418
      dz2     :     0.001638  d :     0.010425
      dxz     :     0.006851
      dyz     :     0.001254
      dx2y2   :     0.000681
      dxy     :     0.000000
  1 H s       :     0.781449  s :     0.781449
      pz      :     0.021895  p :     0.069248
      px      :     0.027189
      py      :     0.020164
  2 H s       :     0.781449  s :     0.781449
      pz      :     0.021895  p :     0.069248
      px      :     0.027189
      py      :     0.020164


                     *******************************
                     * LOEWDIN POPULATION ANALYSIS *
                     *******************************

----------------------
LOEWDIN ATOMIC CHARGES
----------------------
   0 O :   -0.155060
   1 H :    0.077530
   2 H :    0.077530

-------------------------------
LOEWDIN REDUCED ORBITAL CHARGES
-------------------------------
  0 O s       :     3.454867  s :     3.454867
      pz      :     1.555755  p :     4.680958
      px      :     1.231262
      py      :     1.893941
      dz2     :     0.001160  d :     0.019236
      dxz     :     0.014703
      dyz     :     0.000410
      dx2y2   :     0.002962
      dxy     :     0.000000
  1 H s       :     0.750591  s :     0.750591
      pz      :     0.061067  p :     0.171879
      px      :     0.057987
      py      :     0.052825
  2 H s       :     0.750591  s :     0.750591
      pz      :     0.061068  p :     0.171879
      px      :     0.057987
      py      :     0.052825


                      *****************************
                      * MAYER POPULATION ANALYSIS *
                      *****************************

  NA   - Mulliken gross atomic population
  ZA   - Total nuclear charge
  QA   - Mulliken gross atomic charge
  VA   - Mayer's total valence
  BVA  - Mayer's bonded valence
  FA   - Mayer's free valence

  ATOM       NA         ZA         QA         VA         BVA        FA
  0 O      8.2986     8.0000    -0.2986     2.0158     2.0158    -0.0000
  1 H      0.8507     1.0000     0.1493     1.0141     1.0141     0.0000
  2 H      0.8507     1.0000     0.1493     1.0141     1.0141     0.0000

  Mayer bond orders larger than 0.1
B(  0-O ,  1-H ) :   1.0079 B(  0-O ,  2-H ) :   1.0079 

-------
TIMINGS
-------

Total SCF time: 0 days 0 hours 0 min 3 sec 

Total time                  ....       3.703 sec
Sum of individual times     ....       3.322 sec  ( 89.7%)

Fock matrix formation       ....       3.026 sec  ( 81.7%)
  Split-RI-J                ....       0.670 sec  ( 22.1% of F)
  XC integration            ....       2.081 sec  ( 68.8% of F)
    Basis function eval.    ....       0.003 sec  (  0.1% of XC)
    Density eval.           ....       0.020 sec  (  1.0% of XC)
    XC-Functional eval.     ....       0.006 sec  (  0.3% of XC)
    XC-Potential eval.      ....       0.001 sec  (  0.0% of XC)
Diagonalization             ....       0.011 sec  (  0.3%)
Density matrix formation    ....       0.001 sec  (  0.0%)
Population analysis         ....       0.035 sec  (  1.0%)
Initial guess               ....       0.002 sec  (  0.1%)
Orbital Transformation      ....       0.000 sec  (  0.0%)
Orbital Orthonormalization  ....       0.000 sec  (  0.0%)
DIIS solution               ....       0.001 sec  (  0.0%)
SOSCF solution              ....       0.012 sec  (  0.3%)
Grid generation             ....       0.233 sec  (  6.3%)

-------------------------   --------------------
FINAL SINGLE POINT ENERGY       -76.360771406680
-------------------------   --------------------

                                *** OPTIMIZATION RUN DONE ***

                            ***************************************
                            *     ORCA property calculations      *
                            ***************************************

                                    ---------------------
                                    Active property flags
                                    ---------------------
   (+) Dipole Moment


------------------------------------------------------------------------------
                       ORCA ELECTRIC PROPERTIES CALCULATION
------------------------------------------------------------------------------

Dipole Moment Calculation                       ... on
Quadrupole Moment Calculation                   ... off
Polarizability Calculation                      ... off
GBWName                                         ... h2o.gbw
Electron density file                           ... h2o.scfp.tmp
The origin for moment calculation is the CENTER OF MASS  = (-0.000001, -0.000002 -0.642302)

-------------
DIPOLE MOMENT
-------------
                                X             Y             Z
Electronic contribution:     -0.00000      -0.00000      -0.23897
Nuclear contribution   :      0.00000       0.00000       1.01995
                        -----------------------------------------
Total Dipole Moment    :      0.00000       0.00000       0.78097
                        -----------------------------------------
Magnitude (a.u.)       :      0.78097
Magnitude (Debye)      :      1.98508



--------------------
Rotational spectrum 
--------------------
 
Rotational constants in cm-1:    25.082839    14.524486     9.198181 
Rotational constants in MHz : 751964.609269 435433.140372 275754.532432 

 Dipole components along the rotational axes: 
x,y,z [a.u.] :     0.000000     0.780973     0.000000 
x,y,z [Debye]:     0.000000     1.985076     0.000000 

 


           ************************************************************
           *        Program running with 36 parallel MPI-processes    *
           *              working on a common directory               *
           ************************************************************

-------------------------------------------------------------------------------
                               ORCA SCF HESSIAN
-------------------------------------------------------------------------------

Hessian of the Kohn-Sham DFT energy:
Kohn-Sham wavefunction type                      ... RKS
Hartree-Fock exchange scaling                    ...    0.000
Number of operators                              ...    1
Number of atoms                                  ...    3
Basis set dimensions                             ...   24
Integral neglect threshold                       ... 2.5e-11
Integral primitive cutoff                        ... 2.5e-12

Setting up DFT Hessian calculations              ... 
Electron density on the grid                     ... found on disk
Building xc-kernel on the grid                   ... done   (      0.1 sec)
                                                     done   (      0.1 sec)

Nuclear repulsion Hessian                        ... done   (      0.0 sec)

----------------------------------------------
Forming right-hand sides of CP-SCF equations     ...
----------------------------------------------
One electron integral derivatives                ... done   (      0.2 sec)
Transforming the overlap derivative matrices     ... done   (      0.0 sec)
Making the Q(x) pseudodensities                  ... done   (      0.0 sec)
Adding the E*S(x)*S(y) terms to the Hessian      ... done   (      0.0 sec)
Calculating energy weighted overlap derivatives  ... done   (      0.0 sec)
Two electron integral derivatives (RI)           ... done   (      0.4 sec)
Exchange-correlation integral derivatives        ... done   (      0.0 sec)
tr(F(y)Q(x)) contribution to the Hessian         ... done   (      0.0 sec)
Response fock operator R(S(x)) (RI)              ... done   (      0.2 sec)
XC Response fock operator R(S(x))                ... done   (      0.0 sec)
tr(F(y)S(x)) contribution to the Hessian         ... done   (      0.0 sec)
Transforming and finalizing RHSs                 ... done   (      0.0 sec)

----------------------------------------------
Solving the CP-SCF equations (RI)                ...
----------------------------------------------
     CP-SCF ITERATION   0: 
     CP-SCF ITERATION   1:      0.000019201083
     CP-SCF ITERATION   2:      0.000000066467
     CP-SCF ITERATION   3:      0.000000001569

                                                 ... done   (      4.5 sec)
Forming perturbed density Hessian contributions  ... done   (      0.0 sec)
Making the perturbed densities                   ... done   (      0.0 sec)
2nd integral derivative contribs (RI)            ... done   (      0.3 sec)
Exchange-correlation Hessian                     ... done   (      0.1 sec)
Dipol derivatives                                ... done   (      0.1 sec)

Total SCF Hessian time: 0 days 0 hours 0 min 6 sec 

Writing the Hessian file to the disk             ... done


Maximum memory used throughout the entire calculation: 120.5 MB

-----------------------
VIBRATIONAL FREQUENCIES
-----------------------

Scaling factor for frequencies =  1.000000000  (already applied!)

   0:         0.00 cm**-1
   1:         0.00 cm**-1
   2:         0.00 cm**-1
   3:         0.00 cm**-1
   4:         0.00 cm**-1
   5:         0.00 cm**-1
   6:      1607.87 cm**-1
   7:      3681.08 cm**-1
   8:      3779.80 cm**-1


------------
NORMAL MODES
------------

These modes are the Cartesian displacements weighted by the diagonal matrix
M(i,i)=1/sqrt(m[i]) where m[i] is the mass of the displaced atom
Thus, these vectors are normalized but *not* orthogonal

                  0          1          2          3          4          5    
      0       0.000000   0.000000   0.000000   0.000000   0.000000   0.000000
      1       0.000000   0.000000   0.000000   0.000000   0.000000   0.000000
      2       0.000000   0.000000   0.000000   0.000000   0.000000   0.000000
      3       0.000000   0.000000   0.000000   0.000000   0.000000   0.000000
      4       0.000000   0.000000   0.000000   0.000000   0.000000   0.000000
      5       0.000000   0.000000   0.000000   0.000000   0.000000   0.000000
      6       0.000000   0.000000   0.000000   0.000000   0.000000   0.000000
      7       0.000000   0.000000   0.000000   0.000000   0.000000   0.000000
      8       0.000000   0.000000   0.000000   0.000000   0.000000   0.000000
                   6          7          8    
      0       0.000000  -0.000000  -0.069157
      1       0.000000  -0.000000   0.000000
      2       0.070086  -0.050670   0.000000
      3       0.433803   0.580536   0.548829
      4      -0.000003  -0.000002  -0.000002
      5      -0.556201   0.402113   0.443166
      6      -0.433806  -0.580533   0.548825
      7       0.000001   0.000004  -0.000004
      8      -0.556198   0.402117  -0.443169


-----------
IR SPECTRUM
-----------

 Mode    freq (cm**-1)   T**2         TX         TY         TZ
-------------------------------------------------------------------
   6:      1607.87   48.150078  ( -0.000023  -0.000012  -6.939026)
   7:      3681.08    2.544972  (  0.000004   0.000003   1.595297)
   8:      3779.80   20.705013  (  4.550276  -0.000024  -0.000013)

The first frequency considered to be a vibration is 6
The total number of vibrations considered is 3


--------------------------
THERMOCHEMISTRY AT 298.15K
--------------------------

Temperature         ... 298.15 K
Pressure            ... 1.00 atm
Total Mass          ... 18.02 AMU

Throughout the following assumptions are being made:
  (1) The electronic state is orbitally nondegenerate
  (2) There are no thermally accessible electronically excited states
  (3) Hindered rotations indicated by low frequency modes are not
      treated as such but are treated as vibrations and this may
      cause some error
  (4) All equations used are the standard statistical mechanics
      equations for an ideal gas
  (5) All vibrations are strictly harmonic

freq.    1607.87  E(vib)   ...       0.00 
freq.    3681.08  E(vib)   ...       0.00 
freq.    3779.80  E(vib)   ...       0.00 

------------
INNER ENERGY
------------

The inner energy is: U= E(el) + E(ZPE) + E(vib) + E(rot) + E(trans)
    E(el)   - is the total energy from the electronic structure calculation
              = E(kin-el) + E(nuc-el) + E(el-el) + E(nuc-nuc)
    E(ZPE)  - the the zero temperature vibrational energy from the frequency calculation
    E(vib)  - the the finite temperature correction to E(ZPE) due to population
              of excited vibrational states
    E(rot)  - is the rotational thermal energy
    E(trans)- is the translational thermal energy

Summary of contributions to the inner energy U:
Electronic energy                ...    -76.36077141 Eh
Zero point energy                ...      0.02066013 Eh      12.96 kcal/mol
Thermal vibrational correction   ...      0.00000313 Eh       0.00 kcal/mol
Thermal rotational correction    ...      0.00141627 Eh       0.89 kcal/mol
Thermal translational correction ...      0.00141627 Eh       0.89 kcal/mol
-----------------------------------------------------------------------
Total thermal energy                    -76.33727561 Eh


Summary of corrections to the electronic energy:
(perhaps to be used in another calculation)
Total thermal correction                  0.00283567 Eh       1.78 kcal/mol
Non-thermal (ZPE) correction              0.02066013 Eh      12.96 kcal/mol
-----------------------------------------------------------------------
Total correction                          0.02349580 Eh      14.74 kcal/mol


--------
ENTHALPY
--------

The enthalpy is H = U + kB*T
                kB is Boltzmann's constant
Total free energy                 ...    -76.33727561 Eh 
Thermal Enthalpy correction       ...      0.00094421 Eh       0.59 kcal/mol
-----------------------------------------------------------------------
Total Enthalpy                    ...    -76.33633140 Eh


Note: Rotational entropy computed according to Herzberg 
Infrared and Raman Spectra, Chapter V,1, Van Nostrand Reinhold, 1945 
Point Group:  C2v, Symmetry Number:   2  
Rotational constants in cm-1:    25.082839    14.524486     9.198181 

Vibrational entropy computed according to the QRRHO of S. Grimme
Chem.Eur.J. 2012 18 9955


-------
ENTROPY
-------

The entropy contributions are T*S = T*(S(el)+S(vib)+S(rot)+S(trans))
     S(el)   - electronic entropy
     S(vib)  - vibrational entropy
     S(rot)  - rotational entropy
     S(trans)- translational entropy
The entropies will be listed as mutliplied by the temperature to get
units of energy

Electronic entropy                ...      0.00000000 Eh      0.00 kcal/mol
Vibrational entropy               ...      0.00000353 Eh      0.00 kcal/mol
Rotational entropy                ...      0.00502438 Eh      3.15 kcal/mol
Translational entropy             ...      0.01644380 Eh     10.32 kcal/mol
-----------------------------------------------------------------------
Final entropy term                ...      0.02147172 Eh     13.47 kcal/mol


-------------------
GIBBS FREE ENTHALPY
-------------------

The Gibbs free enthalpy is G = H - T*S

Total enthalpy                    ...    -76.33633140 Eh 
Total entropy correction          ...     -0.02147172 Eh    -13.47 kcal/mol
-----------------------------------------------------------------------
Final Gibbs free enthalpy         ...    -76.35780312 Eh

For completeness - the Gibbs free enthalpy minus the electronic energy
G-E(el)                           ...      0.00296829 Eh      1.86 kcal/mol


Timings for individual modules:

Sum of individual times         ...       87.438 sec (=   1.457 min)
GTO integral calculation        ...       15.559 sec (=   0.259 min)  17.8 %
SCF iterations                  ...       54.741 sec (=   0.912 min)  62.6 %
SCF Gradient evaluation         ...        8.586 sec (=   0.143 min)   9.8 %
Geometry relaxation             ...        0.302 sec (=   0.005 min)   0.3 %
Analytical frequency calculation...        8.251 sec (=   0.138 min)   9.4 %
                             ****ORCA TERMINATED NORMALLY****
TOTAL RUN TIME: 0 days 0 hours 1 minutes 32 seconds 217 msec
