 Entering Gaussian System
 *********************************************
 Gaussian 98:
 frequency output generated by the xtb code
 *********************************************
                         Standard orientation:
 --------------------------------------------------------------------
  Center     Atomic     Atomic              Coordinates (Angstroms)
  Number     Number      Type              X           Y           Z
 --------------------------------------------------------------------
    1          8             0       -0.000001   -0.000001   -0.379301
    2          1             0        0.772209   -0.000004    0.189648
    3          1             0       -0.772207    0.000004    0.189653
 --------------------------------------------------------------------
     1 basis functions        1 primitive gaussians
     1 alpha electrons        1 beta electrons
 
 Harmonic frequencies (cm**-1), IR intensities (km*mol⁻¹),
 Raman scattering activities (A**4/amu), Raman depolarization ratios,
 reduced masses (AMU), force constants (mDyne/A) and normal coordinates:
                      1                      2                      3
                        a                      a                      a 
 Frequencies --  1539.3985              3644.2895              3652.6730
 Red. masses --     2.1460                 1.5474                 2.1398
 Frc consts  --     0.0000                 0.0000                 0.0000
 IR Inten    --   133.5621                 6.6678                16.7612
 Raman Activ --     0.0000                 0.0000                 0.0000
 Depolar     --     0.0000                 0.0000                 0.0000
 Atom AN      X      Y      Z        X      Y      Z        X      Y      Z
   1   8    -0.00  -0.00  -0.28    -0.00  -0.00  -0.19     0.27  -0.00  -0.00
   2   1    -0.40   0.00   0.55     0.58  -0.00   0.38    -0.55   0.00  -0.40
   3   1     0.40  -0.00   0.55    -0.58   0.00   0.38    -0.55   0.00   0.40
