          36 PROCESSORS WORKING

         
 *******************************************************************************
 *                                                                             *
 *                               CRYSTAL17                                     *
 *                      public : 1.0.2 - March 1st, 2018                       *
 *                       HTTP://WWW.CRYSTAL.UNITO.IT                           *
 *                                                                             *
 *                              MAIN AUTHORS                                   *
 *                                                                             *
 *  R. DOVESI(1,11), V.R. SAUNDERS(2), C. ROETTI(1,11), R. ORLANDO(1,11),      *
 *  C.M. ZICOVICH-WILSON(1,3), F. PASCALE(4), B. CIVALLERI(1,11),              *
 *  K. DOLL(5), N.M. HARRISON(2,6), I.J. BUSH(7), Ph. D'ARCO(8),               *
 *  M. LLUNELL(9), M. CAUSA'(10), Y. NOEL(8), L. MASCHIO(1,11), A. ERBA(1,11)  *
 *  M. RE'RAT(14), S. CASASSA(1,11)                                            *
 *                                                                             *
 *        CONTRIBUTIONS TO THE CODE HAVE ALSO BEEN GIVEN BY                    *
 *                                                                             *
 *  M. FERRABONE(1,11), M. DE LA PIERRE(1,11), M. FERRERO(1,11),               *
 *  J. BAIMA(1,11), E. ALBANESE(1,11), M.F. PEINTINGER(12), R. BAST(13),       *
 *  B. KIRTMAN(15), V. LACIVITA(1,11), R. DEMICHELIS(1,16)                     *
 *  G. BRANDEBURG(17), S. SALUSTRO(1,11), G. SANSONE(1,11)                     *
 *  M.T. RUGGIERO(18)                                                          *
 *                                                                             *
 * (1) THEORETICAL CHEMISTRY GROUP - UNIVERSITA' DI TORINO - TORINO (ITALY)    *
 * (2) COMPUTATIONAL SCIENCE & ENGINEERING DEPARTMENT - STFC DARESBURY (UK)    *
 * (3) UNIVERSIDAD AUTONOMA DEL ESTADO DE MORELOS - CUERNAVACA (MEXICO)        *
 * (4) UNIVERSITE' DE LORRAINE - NANCY (FRANCE)                                *
 * (5) UNIVERSITAET STUTTGART- STUTTGART (GERMANY)                             *
 * (6) IMPERIAL COLLEGE - LONDON (UK)                                          *
 * (7) OXFORD E-RESEARCH CENTRE - OXFORD (UK)                                  *
 * (8) UPMC - SORBONNE UNIVERSITES - PARIS (FRANCE)                            *
 * (9) UNIVERSIDAD DE BARCELONA - BARCELONA (SPAIN)                            *
 *(10) UNIVERSITA' DI NAPOLI "FEDERICO II" - NAPOLI (ITALY)                    *
 *(11) NIS - NANOSTRUCTURED INTERFACES AND SURFACES - TORINO (ITALY)           *
 *(12) MPI FUER CHEMISCHE ENERGIEKONVERSION - MUELHEIM AN DER RUHR (GERMANY)   *
 *(13) UNIVERSITY OF TROMSO - TROMSO (NORWAY)                                  *
 *(14) UNIVERSITE' DE PAU ET DES PAYS DE L'ADOUR - PAU (FRANCE)                *
 *(15) UNIVERSITY OF CALIFORNIA SANTA BARBARA - SANTA BARBARA (USA)            *
 *(16) CURTIN UNIVERSITY - PERTH (AUSTRALIA)                                   *
 *(17) UNIVERSITY COLLEGE LONDON - LONDON (UK)                                 *
 *(18) CAMBRIDGE UNIVERSITY - CAMBRIDGE (UK)                                   *
 *                                                                             *
 *******************************************************************************
 EEEEEEEEEE STARTING  DATE 22 12 2018 TIME 17:25:19.6
 Polymer trans PA - B3LYP/6-31G**                                                

 POLYMER CALCULATION
 POLYMER GROUP N.  1                  :  P 1             
 CORRESPONDING SPACE GROUP            :  P 1             
 (THE SPACE GROUP SYMBOL AND EQUIVALENT POSITIONS REFER TO A Z-ORIENTED POLYMER)

 LATTICE PARAMETER (ANGSTROMS) - CONVENTIONAL CELL        2.47592


 NUMBER OF IRREDUCIBLE ATOMS IN THE CONVENTIONAL CELL:    4

 INPUT COORDINATES

 ATOM AT. N.              COORDINATES
   1   6    -2.421472299994E-01  3.257027006776E-01 -1.554404433346E-06
   2   1    -2.422207443541E-01  1.416545958222E+00  3.948689302298E-07
   3   6     2.412776377132E-01 -3.257529920161E-01  1.456161850567E-06
   4   1     2.413510765752E-01 -1.416595666884E+00 -2.966263474510E-07

 *******************************************************************************

 << INFORMATION >>: FROM NOW ON, ALL COORDINATES REFER TO THE PRIMITIVE CELL

 *******************************************************************************

 LATTICE PARAMETERS  (ANGSTROMS AND DEGREES) - PRIMITIVE CELL
       A          B          C        ALPHA      BETA     GAMMA        VOLUME
    2.47592  500.00000  500.00000    90.00000  90.00000  90.00000      2.475918

 COORDINATES OF THE EQUIVALENT ATOMS (ANGSTROMS)

 N. ATOM EQUIV AT. N.          X                  Y                  Z

   1   1   1    6 C    -5.99536745942E-01  3.25702700678E-01 -1.55440443335E-06

   2   2   1    1 H    -5.99718761475E-01  1.41654595822E+00  3.94868930230E-07

   3   3   1    6 C     5.97383706531E-01 -3.25752992016E-01  1.45616185057E-06

   4   4   1    1 H     5.97565535150E-01 -1.41659566688E+00 -2.96626347451E-07

 NUMBER OF SYMMETRY OPERATORS         :    1
 *******************************************************************************
 * GEOMETRY EDITING - INPUT COORDINATES ARE GIVEN IN ANGSTROM         
 *******************************************************************************

 FRQFRQFRQFRQFRQFRQFRQFRQFRQFRQFRQFRQFRQFRQFRQFRQFRQFRQFRQFRQFRQFRQFRQFRQFRQFRQ

                       FREQUENCY CALCULATION

 INFORMATION **** INPFREQ **** REMOVING ECKART CONDITIONS TO THE HESSIAN
 INFORMATION **** INPFREQ **** NUMERICAL DERIVATIVE OF GRADIENT OPTION           2
 INFORMATION **** INPFREQ **** DEFAULT STEP SIZE VALUE (0.003) MODIFIED
 STEP SIZE  0.2000E-02

 GCALCO - MAX INDICES DIRECT LATTICE VECTOR 13998     0     0
 NO.OF VECTORS CREATED 6999 STARS 3500 RMAX 16371.14717 BOHR

 GEOMETRY FOR WAVE FUNCTION - DIMENSIONALITY OF THE SYSTEM    1
 (NON PERIODIC DIRECTION: LATTICE PARAMETER FORMALLY SET TO 500)
 *******************************************************************************
 LATTICE PARAMETERS (ANGSTROMS AND DEGREES) - BOHR = 0.5291772083 ANGSTROM
 PRIMITIVE CELL
         A              B              C           ALPHA      BETA       GAMMA 
     2.47591825   500.00000000   500.00000000    90.000000  90.000000  90.000000
 *******************************************************************************
 ATOMS IN THE ASYMMETRIC UNIT    4 - ATOMS IN THE UNIT CELL:    4
     ATOM                 X/A             Y(ANGSTROM)         Z(ANGSTROM)
 *******************************************************************************
      1 T   6 C    -2.421472299994E-01  3.257027006776E-01 -1.554404433346E-06
      2 T   1 H    -2.422207443541E-01  1.416545958222E+00  3.948689302298E-07
      3 T   6 C     2.412776377132E-01 -3.257529920161E-01  1.456161850567E-06
      4 T   1 H     2.413510765752E-01 -1.416595666884E+00 -2.966263474510E-07

 T = ATOM BELONGING TO THE ASYMMETRIC UNIT

 ****    1 SYMMOPS - TRANSLATORS IN FRACTIONAL UNITS
 **** MATRICES AND TRANSLATORS IN THE CRYSTALLOGRAPHIC REFERENCE FRAME
   V INV                    ROTATION MATRICES                   TRANSLATORS
   1   1  1.00  0.00 -0.00  0.00  1.00  0.00  0.00  0.00  1.00  0.00  0.00  0.00

 DIRECT LATTICE VECTORS CARTESIAN COMPONENTS (ANGSTROM)
          X                    Y                    Z
   0.247591825000E+01   0.000000000000E+00   0.000000000000E+00
   0.000000000000E+00   0.500000000000E+03   0.000000000000E+00
   0.000000000000E+00   0.000000000000E+00   0.500000000000E+03


 CARTESIAN COORDINATES - PRIMITIVE CELL
 *******************************************************************************
 *      ATOM          X(ANGSTROM)         Y(ANGSTROM)         Z(ANGSTROM)
 *******************************************************************************
    1     6 C    -5.995367459425E-01  3.257027006776E-01 -1.554404433346E-06
    2     1 H    -5.997187614749E-01  1.416545958222E+00  3.948689302298E-07
    3     6 C     5.973837065310E-01 -3.257529920161E-01  1.456161850567E-06
    4     1 H     5.975655351497E-01 -1.416595666884E+00 -2.966263474510E-07

 *******************************************************************************
 LOCAL ATOMIC FUNCTIONS BASIS SET
 *******************************************************************************
   ATOM   X(AU)   Y(AU)   Z(AU)  N. TYPE  EXPONENT  S COEF   P COEF   D/F/G COEF
 *******************************************************************************
   1 C   -1.133   0.615  -0.000
                                  1 S  
                                         3.048E+03 1.835E-03 0.000E+00 0.000E+00
                                         4.574E+02 1.404E-02 0.000E+00 0.000E+00
                                         1.039E+02 6.884E-02 0.000E+00 0.000E+00
                                         2.921E+01 2.322E-01 0.000E+00 0.000E+00
                                         9.287E+00 4.679E-01 0.000E+00 0.000E+00
                                         3.164E+00 3.623E-01 0.000E+00 0.000E+00
                           2-     5 SP 
                                         7.868E+00-1.193E-01 6.900E-02 0.000E+00
                                         1.881E+00-1.609E-01 3.164E-01 0.000E+00
                                         5.442E-01 1.143E+00 7.443E-01 0.000E+00
                           6-     9 SP 
                                         1.687E-01 1.000E+00 1.000E+00 0.000E+00
                          10-    14 D  
                                         8.000E-01 0.000E+00 0.000E+00 1.000E+00
   2 H   -1.133   2.677   0.000
                                 15 S  
                                         1.873E+01 3.349E-02 0.000E+00 0.000E+00
                                         2.825E+00 2.347E-01 0.000E+00 0.000E+00
                                         6.401E-01 8.138E-01 0.000E+00 0.000E+00
                                 16 S  
                                         1.613E-01 1.000E+00 0.000E+00 0.000E+00
                          17-    19 P  
                                         1.100E+00 0.000E+00 1.000E+00 0.000E+00
   3 C    1.129  -0.616   0.000
   4 H    1.129  -2.677  -0.000
 INFORMATION **** SET_MPP **** PCRYSTAL CALCULATION
 INFORMATION **** READM2 **** NEW DEFAULT: FOCK/KS MATRIX MIXING SET TO 30 %
 INFORMATION **** READM2 **** NEW DEFAULT: FULL DIRECT SCF MODE
 INFORMATION **** READM2 **** NEW DEFAULT: COULOMB BIPOLAR BUFFER SET TO 32 Mb
 INFORMATION **** READM2 **** NEW DEFAULT: EXCHANGE BIPOLAR BUFFER SET TO 32 Mb

 *******************************************************************************
 NEW DEFAULT: DFT INTEGRATION GRID INCREASED TO XLGRID
 NEW DEFAULT: DIIS ACCELERATOR ACTIVE
 USE KEYWORD NODIIS TO TURN IT OFF
 *******************************************************************************

 INFORMATION **** RDDFTP **** MAX N. OF POINTS ALLOWED IN A BATCH FOR NUMERICAL INTEGRATION         200
 INFORMATION **** TOLDEE **** SCF TOL ON TOTAL ENERGY SET TO          10
 INFORMATION **** TOLINTEG **** COULOMB AND EXCHANGE SERIES TOLERANCES MODIFIED
 *******************************************************************************
 N. OF ATOMS PER CELL         4  COULOMB OVERLAP TOL         (T1) 10**  -12
 NUMBER OF SHELLS            14  COULOMB PENETRATION TOL     (T2) 10**  -12
 NUMBER OF AO                38  EXCHANGE OVERLAP TOL        (T3) 10**  -12
 N. OF ELECTRONS PER CELL    14  EXCHANGE PSEUDO OVP (F(G))  (T4) 10**  -12
 CORE ELECTRONS PER CELL      4  EXCHANGE PSEUDO OVP (P(G))  (T5) 10**  -20
 N. OF SYMMETRY OPERATORS     1  POLE ORDER IN MONO ZONE                  4
 *******************************************************************************
 TYPE OF CALCULATION :  RESTRICTED CLOSED SHELL
 KOHN-SHAM HAMILTONIAN

 (EXCHANGE)[CORRELATION] FUNCTIONAL:(BECKE 88)[LEE-YANG-PARR]

 NON-LOCAL WEIGHTING FACTOR (EXCHANGE) =           0.9000
 NON-LOCAL WEIGHTING FACTOR [CORRELATION] =        0.8100

 HYBRID EXCHANGE - PERCENTAGE OF FOCK EXCHANGE    20.0000

 CAPPA:IS1 12;IS2  1;IS3  1; K PTS MONK NET   7; SYMMOPS:K SPACE   2;G SPACE   1

 *******************************************************************************
 MAX NUMBER OF SCF CYCLES      50  CONVERGENCE ON DELTAP        10**-20
 WEIGHT OF F(I) IN F(I+1)      30% CONVERGENCE ON ENERGY        10**-10
 SHRINK. FACT.(MONKH.)   12  1  1  NUMBER OF K POINTS IN THE IBZ      7
 SHRINKING FACTOR(GILAT NET)   12  NUMBER OF K POINTS(GILAT NET)      7
 *******************************************************************************
 *** K POINTS COORDINATES (OBLIQUE COORDINATES IN UNITS OF IS = 12)
   1-R(  0  0  0)   2-C(  1  0  0)   3-C(  2  0  0)   4-C(  3  0  0)
   5-C(  4  0  0)   6-C(  5  0  0)   7-R(  6  0  0)

 DIRECT LATTICE VECTORS COMPON. (A.U.)     RECIP. LATTICE VECTORS COMPON. (A.U.) 
        X            Y            Z              X            Y            Z
    4.6788074    0.0000000    0.0000000      1.3429032    0.0000000    0.0000000
    0.0000000  944.8630670    0.0000000      0.0000000    0.0066498    0.0000000
    0.0000000    0.0000000  944.8630670      0.0000000    0.0000000    0.0066498

 DISK SPACE FOR EIGENVECTORS (FTN 10)       17328 REALS

 SYMMETRY ADAPTION OF THE BLOCH FUNCTIONS DISABLED
 TTTTTTTTTTTTTTTTTTTTTTTTTTTTTT gordsh1     TELAPSE        0.88 TCPU        0.07

 MATRIX SIZE: P(G)    8998, F(G)    3438, P(G) IRR    4894, F(G) IRR    3660
 MAX G-VECTOR INDEX FOR 1- AND 2-ELECTRON INTEGRALS  11

 TTTTTTTTTTTTTTTTTTTTTTTTTTTTTT INPUT       TELAPSE        1.07 TCPU        0.26

 NEIGHBORS OF THE NON-EQUIVALENT ATOMS

 N = NUMBER OF NEIGHBORS AT DISTANCE R
    ATOM  N     R/ANG      R/AU   NEIGHBORS (ATOM LABELS AND CELL INDICES)
   1 C    1     1.0908     2.0614    2 H    0 0 0
   1 C    1     1.3627     2.5752    3 C    0 0 0
   1 C    1     1.4354     2.7124    3 C   -1 0 0
   1 C    1     2.1139     3.9947    4 H    0 0 0
   1 C    1     2.1612     4.0842    4 H   -1 0 0
   1 C    2     2.4759     4.6788    1 C   -1 0 0    1 C    1 0 0

   2 H    1     1.0908     2.0614    1 C    0 0 0
   2 H    1     2.1139     3.9947    3 C    0 0 0
   2 H    1     2.1612     4.0842    3 C   -1 0 0
   2 H    2     2.4759     4.6788    2 H   -1 0 0    2 H    1 0 0
   2 H    1     2.7054     5.1125    1 C   -1 0 0
   2 H    1     2.7057     5.1131    1 C    1 0 0

   3 C    1     1.0908     2.0614    4 H    0 0 0
   3 C    1     1.3627     2.5752    1 C    0 0 0
   3 C    1     1.4354     2.7124    1 C    1 0 0
   3 C    1     2.1139     3.9947    2 H    0 0 0
   3 C    1     2.1612     4.0842    2 H    1 0 0
   3 C    2     2.4759     4.6788    3 C   -1 0 0    3 C    1 0 0

   4 H    1     1.0908     2.0614    3 C    0 0 0
   4 H    1     2.1139     3.9947    1 C    0 0 0
   4 H    1     2.1612     4.0842    1 C    1 0 0
   4 H    2     2.4759     4.6788    4 H   -1 0 0    4 H    1 0 0
   4 H    1     2.7054     5.1125    3 C    1 0 0
   4 H    1     2.7057     5.1131    3 C   -1 0 0


 SYMMETRY ALLOWED INTERNAL DEGREE(S) OF FREEDOM:   8
 TTTTTTTTTTTTTTTTTTTTTTTTTTTTTT SYMM        TELAPSE        1.07 TCPU        0.26
 TTTTTTTTTTTTTTTTTTTTTTTTTTTTTT INT_SCREEN  TELAPSE        1.07 TCPU        0.26

 *******************************************************************************
 *                                                                             *
 *                                                                             *
 *         FFFFF  RRRR   EEEE   QQQ   U   U  EEEE  N   N   CCC  Y   Y          *
 *         F      R   R  E     Q   Q  U   U  E     NN  N  C      Y Y           *
 *         FFF    RRRR   EEEE  Q   Q  U   U  EEEE  N N N  C       Y            *
 *         F      R   R  E     Q  QQ  U   U  E     N  NN  C       Y            *
 *         F      R   R  EEEE   QQ Q   UUU   EEEE  N   N   CCC    Y            *
 *                                                                             *
 *                                                                             *
 * CALCULATION OF PHONON FREQUENCIES AT THE GAMMA POINT.                       *
 *                                                                             *
 * SYMMETRY IS EXPLOITED TO BUILD THE TOTAL HESSIAN MATRIX.                    *
 * (F. PASCALE PHD THESIS TURIN-PARIS 2002)                                    *
 *                                                                             *
 *******************************************************************************


 * INTENSITIES COMPUTED VIA THE BERRY PHASE APPROACH                           *
 *                                                                             *
 * REFERENCES TO BE QUOTED WHEN USING THIS MODULE:                             *
 *                                                                             *
 * F. Pascale, C.M. Zicovich-Wilson, F. Lopez, B. Civalleri                    *
 * R. Orlando, R. Dovesi                                                       *
 * The calculation of the vibration frequencies of crystalline                 *
 * compounds and its implementation in the CRYSTAL code                        *
 * J. Comput. Chem. 25 (2004) 888-897                                          *
 *                                                                             *
 * C.M. Zicovich-Wilson, F. Pascale, C. Roetti, V.R. Saunders,                 *
 * R. Orlando, R. Dovesi                                                       *
 * The calculation of the vibration frequencies of alpha-quartz:               *
 * the effect of hamiltonian and basis set                                     *
 * J. Comput. Chem. 25 (2004) 1873-1881                                        *
 *******************************************************************************



 ATOMS ISOTOPIC MASS (AMU) FOR FREQUENCY CALCULATION 

    1 C      12.0000    2 H       1.0078    3 C      12.0000    4 H       1.0078

 INFORMATION CONCERNING THE SCF+GRADIENT CALCULATIONS REQUIRED FOR
 GENERATING FREQUENCIES. IN PRINCIPLE 3N+1 SCF + GRADIENT
 CALCULATIONS  ARE REQUIRED;
 FOR EACH OF THEM THE REMAINING POINT SYMMETRY IS INDICATED.
 POINT SYMMETRY PERMITS TO GENERATE GRADIENTS FOR DISPLACEMENT B 
 STARTING FROM THE GRADIENT GENERATED BY DISPLACEMENT A.

   N   LABEL SYMBOL DISPLACEMENT     SYM. 

   1     EQUILIBRIUM GEOMETRY            1

   2      1   C            DX        GENERATED BY TRANSLATIONAL INVARIANCE
   3      1   C            DY        GENERATED BY TRANSLATIONAL INVARIANCE
   4      1   C            DZ        GENERATED BY TRANSLATIONAL INVARIANCE
   5      2   H            DX           1
   6      2   H            DY           1
   7      2   H            DZ           1
   8      3   C            DX           1
   9      3   C            DY           1
  10      3   C            DZ           1
  11      4   H            DX           1
  12      4   H            DY           1
  13      4   H            DZ           1
 USE OF RESIDUAL SYMMETRY AFTER DISPLACEMENT

 NUMERICAL GRADIENT COMPUTED WITH A DOUBLE DISPLACEMENT (+-DX) FOR EACH
 CARTESIAN COORDINATE WITH RESPECT TO THE EQUILIBRIUM CONFIGURATION
 DX=  0.002 ANGSTROM
 NUMBER OF IRREDUCIBLE ATOMS                     4
 NUMBER OF SCF+GRADIENT CALCULATIONS            19

  ATOM  SYMOP  ORDER
    1      1      1
    2      1      1
    3      1      1
    4      1      1

 ATOM  : IRREDUCIBLE ATOM
 SYMOP : NUMBER OF SYMMETRY OPERATORS THAT DOESN'T MOVE THE IRREDUCIBLE ATOM
 ORDER : MAXIMUM ORDER AMONG THE OPERATORS OF THE IRREDUCIBLE ATOM

 *******************************************************************************


 GCALCO - MAX INDICES DIRECT LATTICE VECTOR 13998     0     0
 NO.OF VECTORS CREATED 6999 STARS 3500 RMAX 16371.14717 BOHR

 CAPPA:IS1 12;IS2  1;IS3  1; K PTS MONK NET   7; SYMMOPS:K SPACE   2;G SPACE   1

 TTTTTTTTTTTTTTTTTTTTTTTTTTTTTT gordsh1     TELAPSE        1.10 TCPU        0.26

 MATRIX SIZE: P(G)    8998, F(G)    3438, P(G) IRR    4894, F(G) IRR    3660
 MAX G-VECTOR INDEX FOR 1- AND 2-ELECTRON INTEGRALS  11

 TTTTTTTTTTTTTTTTTTTTTTTTTTTTTT INPUT       TELAPSE        1.10 TCPU        0.26

 SYMMETRY ALLOWED INTERNAL DEGREE(S) OF FREEDOM:   8
 TTTTTTTTTTTTTTTTTTTTTTTTTTTTTT SYMM        TELAPSE        1.10 TCPU        0.26
 TTTTTTTTTTTTTTTTTTTTTTTTTTTTTT INT_SCREEN  TELAPSE        1.10 TCPU        0.26
 INFORMATION **** EXCBUF **** EXCH. BIPO BUFFER: WORDS USED =       77598

 DFT PARAMETERS

     ATOM       ELECTRONS   NET CHARGE   R(ANGSTROM)
   1   6  C       6.0000      0.0000     0.77000000
   2   1  H       1.0000      0.0000     1.11000000

 SIZE OF GRID=     258494
 TTTTTTTTTTTTTTTTTTTTTTTTTTTTTT MAKE_GRID2  TELAPSE        1.32 TCPU        0.48
 BECKE WEIGHT FUNCTION
 RADSAFE =     2.00
 TOLERANCES - DENSITY:10**- 6; POTENTIAL:10**- 9; GRID WGT:10**-14

 RADIAL INTEGRATION  - INTERVALS (POINTS,UPPER LIMIT):            1( 99,  4.0*R)

 ANGULAR INTEGRATION - INTERVALS (ACCURACY LEVEL [N. POINTS] UPPER LIMIT):
  1(  6[ 146]   0.2)  2( 11[ 302]   0.5)  3( 14[ 590]   0.9)  4( 18[1454]   3.5)
  5( 14[ 590]9999.0)
 TTTTTTTTTTTTTTTTTTTTTTTTTTTTTT INT_CALC    TELAPSE        1.33 TCPU        0.48

 *******************************************************************************
 Polymer trans PA - B3LYP/6-31G**                                                
 CRYSTAL - SCF - TYPE OF CALCULATION :  RESTRICTED CLOSED SHELL
 *******************************************************************************

 CAPPA:IS1 12;IS2  1;IS3  1; K PTS MONK NET   7; SYMMOPS:K SPACE   2;G SPACE   1

 TTTTTTTTTTTTTTTTTTTTTTTTTTTTTT SDIK        TELAPSE        1.34 TCPU        0.50

 AAAAAAAAAAAAAAAAAAAAAAAAAAAAAAAAAAAAAAAAAAAAAAAAAAAAAAAAAAAAAAAAAAAAAAAAAAAAAAA
         ATOMIC WAVEFUNCTION(S)


 NUCLEAR CHARGE  6.0  SYMMETRY SPECIES            S    P
 N. ELECTRONS    6.0  NUMBER OF PRIMITIVE GTOS   10    4
                      NUMBER OF CONTRACTED GTOS   3    2
                      NUMBER OF CLOSED SHELLS     2    0
                      OPEN SHELL OCCUPATION       0    2

  ZNUC SCFIT  TOTAL HF ENERGY   KINETIC ENERGY   VIRIAL THEOREM ACCURACY
   6.0   9   -3.767686565E+01  3.769049035E+01 -1.999638511E+00  3.3E-06

 NUCLEAR CHARGE  1.0  SYMMETRY SPECIES            S
 N. ELECTRONS    1.0  NUMBER OF PRIMITIVE GTOS    4
                      NUMBER OF CONTRACTED GTOS   2
                      NUMBER OF CLOSED SHELLS     0
                      OPEN SHELL OCCUPATION       1

  ZNUC SCFIT  TOTAL HF ENERGY   KINETIC ENERGY   VIRIAL THEOREM ACCURACY
   1.0   1   -4.982329107E-01  5.098666918E-01 -1.977182700E+00  4.7E-17

 AAAAAAAAAAAAAAAAAAAAAAAAAAAAAAAAAAAAAAAAAAAAAAAAAAAAAAAAAAAAAAAAAAAAAAAAAAAAAAA

 TTTTTTTTTTTTTTTTTTTTTTTTTTTTTT MOQGAD      TELAPSE        1.37 TCPU        0.53
 TTTTTTTTTTTTTTTTTTTTTTTTTTTTTT SHELLXN     TELAPSE        1.40 TCPU        0.55
 TTTTTTTTTTTTTTTTTTTTTTTTTTTTTT MONMO3      TELAPSE        1.51 TCPU        0.66
 NUMERICALLY INTEGRATED DENSITY     13.9999917459
 TTTTTTTTTTTTTTTTTTTTTTTTTTTTTT NUMDFT      TELAPSE        1.55 TCPU        0.70
 CYC   0 ETOT(AU) -7.778296826973E+01 DETOT -7.78E+01 tst  0.00E+00 PX  1.00E+00
 TTTTTTTTTTTTTTTTTTTTTTTTTTTTTT DIIS        TELAPSE        1.55 TCPU        0.70
 TTTTTTTTTTTTTTTTTTTTTTTTTTTTTT FDIK        TELAPSE        1.55 TCPU        0.71
 INSULATING STATE
 TOP OF VALENCE BANDS -    BAND      7; K    7; EIG -2.4627404E-01 AU
 TOP OF VALENCE BANDS -    BAND      7; K    1; EIG -4.1914674E-01 AU
 BOTTOM OF VIRTUAL BANDS - BAND      8; K    7; EIG -2.1495605E-01 AU
 DIRECT ENERGY BAND GAP:   0.8522 eV
 BOTTOM OF VIRTUAL BANDS - BAND      8; K    1; EIG -1.7251449E-03 AU
 TTTTTTTTTTTTTTTTTTTTTTTTTTTTTT PDIG        TELAPSE        1.55 TCPU        0.71
 TTTTTTTTTTTTTTTTTTTTTTTTTTTTTT MOQGAD      TELAPSE        1.55 TCPU        0.71
 TTTTTTTTTTTTTTTTTTTTTTTTTTTTTT SHELLXN     TELAPSE        1.58 TCPU        0.74
 TTTTTTTTTTTTTTTTTTTTTTTTTTTTTT MONMO3      TELAPSE        1.70 TCPU        0.85
 NUMERICALLY INTEGRATED DENSITY     13.9999919736
 TTTTTTTTTTTTTTTTTTTTTTTTTTTTTT NUMDFT      TELAPSE        1.79 TCPU        0.94
 CYC   1 ETOT(AU) -7.732949568791E+01 DETOT  4.53E-01 tst  0.00E+00 PX  1.00E+00
 TTTTTTTTTTTTTTTTTTTTTTTTTTTTTT DIIS        TELAPSE        1.79 TCPU        0.94
 DIIS TEST: 0.98671E-01 AT SCF   CYCLE   1 - MIX   30 %
 TTTTTTTTTTTTTTTTTTTTTTTTTTTTTT FDIK        TELAPSE        1.80 TCPU        0.95
 INSULATING STATE
 TOP OF VALENCE BANDS -    BAND      7; K    7; EIG -1.2075193E-01 AU
 TOP OF VALENCE BANDS -    BAND      7; K    1; EIG -3.0624731E-01 AU
 BOTTOM OF VIRTUAL BANDS - BAND      8; K    7; EIG -7.7949892E-02 AU
 DIRECT ENERGY BAND GAP:   1.1647 eV
 BOTTOM OF VIRTUAL BANDS - BAND      8; K    1; EIG  8.6277550E-02 AU
 TTTTTTTTTTTTTTTTTTTTTTTTTTTTTT PDIG        TELAPSE        1.80 TCPU        0.95
 TTTTTTTTTTTTTTTTTTTTTTTTTTTTTT MOQGAD      TELAPSE        1.80 TCPU        0.95
 TTTTTTTTTTTTTTTTTTTTTTTTTTTTTT SHELLXN     TELAPSE        1.83 TCPU        0.97
 TTTTTTTTTTTTTTTTTTTTTTTTTTTTTT MONMO3      TELAPSE        1.94 TCPU        1.09
 NUMERICALLY INTEGRATED DENSITY     13.9999892603
 TTTTTTTTTTTTTTTTTTTTTTTTTTTTTT NUMDFT      TELAPSE        2.03 TCPU        1.18
 CYC   2 ETOT(AU) -7.735454509565E+01 DETOT -2.50E-02 tst  3.49E-03 PX  9.78E-02
 TTTTTTTTTTTTTTTTTTTTTTTTTTTTTT DIIS        TELAPSE        2.03 TCPU        1.18
 DIIS TEST: 0.10318E-01 AT SCF   CYCLE   2 - DIIS ACTIVE - HISTORY:     2 CYCLES
 TTTTTTTTTTTTTTTTTTTTTTTTTTTTTT FDIK        TELAPSE        2.04 TCPU        1.18
 INSULATING STATE
 TOP OF VALENCE BANDS -    BAND      7; K    7; EIG -1.5048917E-01 AU
 TOP OF VALENCE BANDS -    BAND      7; K    1; EIG -3.4028328E-01 AU
 BOTTOM OF VIRTUAL BANDS - BAND      8; K    7; EIG -9.9496320E-02 AU
 DIRECT ENERGY BAND GAP:   1.3876 eV
 BOTTOM OF VIRTUAL BANDS - BAND      8; K    1; EIG  8.6240199E-02 AU
 TTTTTTTTTTTTTTTTTTTTTTTTTTTTTT PDIG        TELAPSE        2.04 TCPU        1.18
 TTTTTTTTTTTTTTTTTTTTTTTTTTTTTT MOQGAD      TELAPSE        2.04 TCPU        1.18
 TTTTTTTTTTTTTTTTTTTTTTTTTTTTTT SHELLXN     TELAPSE        2.07 TCPU        1.21
 TTTTTTTTTTTTTTTTTTTTTTTTTTTTTT MONMO3      TELAPSE        2.18 TCPU        1.32
 NUMERICALLY INTEGRATED DENSITY     13.9999896757
 TTTTTTTTTTTTTTTTTTTTTTTTTTTTTT NUMDFT      TELAPSE        2.27 TCPU        1.41
 CYC   3 ETOT(AU) -7.735718439226E+01 DETOT -2.64E-03 tst  1.40E-04 PX  2.41E-02
 TTTTTTTTTTTTTTTTTTTTTTTTTTTTTT DIIS        TELAPSE        2.27 TCPU        1.41
 DIIS TEST: 0.35320E-04 AT SCF   CYCLE   3 - DIIS ACTIVE - HISTORY:     3 CYCLES
 TTTTTTTTTTTTTTTTTTTTTTTTTTTTTT FDIK        TELAPSE        2.27 TCPU        1.41
 INSULATING STATE
 TOP OF VALENCE BANDS -    BAND      7; K    7; EIG -1.5190348E-01 AU
 TOP OF VALENCE BANDS -    BAND      7; K    1; EIG -3.4215228E-01 AU
 BOTTOM OF VIRTUAL BANDS - BAND      8; K    7; EIG -9.9482274E-02 AU
 DIRECT ENERGY BAND GAP:   1.4265 eV
 BOTTOM OF VIRTUAL BANDS - BAND      8; K    1; EIG  8.4740445E-02 AU
 TTTTTTTTTTTTTTTTTTTTTTTTTTTTTT PDIG        TELAPSE        2.27 TCPU        1.41
 TTTTTTTTTTTTTTTTTTTTTTTTTTTTTT MOQGAD      TELAPSE        2.27 TCPU        1.41
 TTTTTTTTTTTTTTTTTTTTTTTTTTTTTT SHELLXN     TELAPSE        2.30 TCPU        1.44
 TTTTTTTTTTTTTTTTTTTTTTTTTTTTTT MONMO3      TELAPSE        2.42 TCPU        1.56
 NUMERICALLY INTEGRATED DENSITY     13.9999896812
 TTTTTTTTTTTTTTTTTTTTTTTTTTTTTT NUMDFT      TELAPSE        2.50 TCPU        1.64
 CYC   4 ETOT(AU) -7.735719311899E+01 DETOT -8.73E-06 tst  2.81E-06 PX  1.98E-03
 TTTTTTTTTTTTTTTTTTTTTTTTTTTTTT DIIS        TELAPSE        2.51 TCPU        1.65
 DIIS TEST: 0.41535E-06 AT SCF   CYCLE   4 - DIIS ACTIVE - HISTORY:     4 CYCLES
 TTTTTTTTTTTTTTTTTTTTTTTTTTTTTT FDIK        TELAPSE        2.51 TCPU        1.65
 INSULATING STATE
 TOP OF VALENCE BANDS -    BAND      7; K    7; EIG -1.5217690E-01 AU
 TOP OF VALENCE BANDS -    BAND      7; K    1; EIG -3.4232600E-01 AU
 BOTTOM OF VIRTUAL BANDS - BAND      8; K    7; EIG -9.9338502E-02 AU
 DIRECT ENERGY BAND GAP:   1.4378 eV
 BOTTOM OF VIRTUAL BANDS - BAND      8; K    1; EIG  8.4723113E-02 AU
 TTTTTTTTTTTTTTTTTTTTTTTTTTTTTT PDIG        TELAPSE        2.51 TCPU        1.65
 TTTTTTTTTTTTTTTTTTTTTTTTTTTTTT MOQGAD      TELAPSE        2.51 TCPU        1.65
 TTTTTTTTTTTTTTTTTTTTTTTTTTTTTT SHELLXN     TELAPSE        2.54 TCPU        1.68
 TTTTTTTTTTTTTTTTTTTTTTTTTTTTTT MONMO3      TELAPSE        2.66 TCPU        1.79
 NUMERICALLY INTEGRATED DENSITY     13.9999896793
 TTTTTTTTTTTTTTTTTTTTTTTTTTTTTT NUMDFT      TELAPSE        2.75 TCPU        1.88
 CYC   5 ETOT(AU) -7.735719338106E+01 DETOT -2.62E-07 tst  2.37E-07 PX  3.24E-04
 TTTTTTTTTTTTTTTTTTTTTTTTTTTTTT DIIS        TELAPSE        2.75 TCPU        1.88
 DIIS TEST: 0.72989E-08 AT SCF   CYCLE   5 - DIIS ACTIVE - HISTORY:     5 CYCLES
 TTTTTTTTTTTTTTTTTTTTTTTTTTTTTT FDIK        TELAPSE        2.75 TCPU        1.88
 INSULATING STATE
 TOP OF VALENCE BANDS -    BAND      7; K    7; EIG -1.5219238E-01 AU
 TOP OF VALENCE BANDS -    BAND      7; K    1; EIG -3.4229298E-01 AU
 BOTTOM OF VIRTUAL BANDS - BAND      8; K    7; EIG -9.9280059E-02 AU
 DIRECT ENERGY BAND GAP:   1.4398 eV
 BOTTOM OF VIRTUAL BANDS - BAND      8; K    1; EIG  8.4741656E-02 AU
 TTTTTTTTTTTTTTTTTTTTTTTTTTTTTT PDIG        TELAPSE        2.75 TCPU        1.88
 TTTTTTTTTTTTTTTTTTTTTTTTTTTTTT MOQGAD      TELAPSE        2.75 TCPU        1.88
 TTTTTTTTTTTTTTTTTTTTTTTTTTTTTT SHELLXN     TELAPSE        2.78 TCPU        1.91
 TTTTTTTTTTTTTTTTTTTTTTTTTTTTTT MONMO3      TELAPSE        2.90 TCPU        2.03
 NUMERICALLY INTEGRATED DENSITY     13.9999896788
 TTTTTTTTTTTTTTTTTTTTTTTTTTTTTT NUMDFT      TELAPSE        2.98 TCPU        2.11
 CYC   6 ETOT(AU) -7.735719338569E+01 DETOT -4.63E-09 tst  7.81E-09 PX  6.11E-05
 TTTTTTTTTTTTTTTTTTTTTTTTTTTTTT DIIS        TELAPSE        2.98 TCPU        2.11
 DIIS TEST: 0.41794E-09 AT SCF   CYCLE   6 - DIIS ACTIVE - HISTORY:     6 CYCLES
 TTTTTTTTTTTTTTTTTTTTTTTTTTTTTT FDIK        TELAPSE        2.98 TCPU        2.11
 INSULATING STATE
 TOP OF VALENCE BANDS -    BAND      7; K    7; EIG -1.5220189E-01 AU
 TOP OF VALENCE BANDS -    BAND      7; K    1; EIG -3.4229334E-01 AU
 BOTTOM OF VIRTUAL BANDS - BAND      8; K    7; EIG -9.9266453E-02 AU
 DIRECT ENERGY BAND GAP:   1.4404 eV
 BOTTOM OF VIRTUAL BANDS - BAND      8; K    1; EIG  8.4742828E-02 AU
 TTTTTTTTTTTTTTTTTTTTTTTTTTTTTT PDIG        TELAPSE        2.98 TCPU        2.11
 TTTTTTTTTTTTTTTTTTTTTTTTTTTTTT MOQGAD      TELAPSE        2.98 TCPU        2.11
 TTTTTTTTTTTTTTTTTTTTTTTTTTTTTT SHELLXN     TELAPSE        3.01 TCPU        2.14
 TTTTTTTTTTTTTTTTTTTTTTTTTTTTTT MONMO3      TELAPSE        3.13 TCPU        2.26
 NUMERICALLY INTEGRATED DENSITY     13.9999896788
 TTTTTTTTTTTTTTTTTTTTTTTTTTTTTT NUMDFT      TELAPSE        3.22 TCPU        2.34
 CYC   7 ETOT(AU) -7.735719338627E+01 DETOT -5.81E-10 tst  7.82E-10 PX  1.83E-05
 TTTTTTTTTTTTTTTTTTTTTTTTTTTTTT DIIS        TELAPSE        3.22 TCPU        2.34
 DIIS TEST: 0.28292E-11 AT SCF   CYCLE   7 - DIIS ACTIVE - HISTORY:     7 CYCLES
 TTTTTTTTTTTTTTTTTTTTTTTTTTTTTT FDIK        TELAPSE        3.22 TCPU        2.35
 INSULATING STATE
 TOP OF VALENCE BANDS -    BAND      7; K    7; EIG -1.5220349E-01 AU
 TOP OF VALENCE BANDS -    BAND      7; K    1; EIG -3.4229367E-01 AU
 BOTTOM OF VIRTUAL BANDS - BAND      8; K    7; EIG -9.9264883E-02 AU
 DIRECT ENERGY BAND GAP:   1.4405 eV
 BOTTOM OF VIRTUAL BANDS - BAND      8; K    1; EIG  8.4742628E-02 AU
 TTTTTTTTTTTTTTTTTTTTTTTTTTTTTT PDIG        TELAPSE        3.22 TCPU        2.35
 TTTTTTTTTTTTTTTTTTTTTTTTTTTTTT MOQGAD      TELAPSE        3.22 TCPU        2.35
 TTTTTTTTTTTTTTTTTTTTTTTTTTTTTT SHELLXN     TELAPSE        3.25 TCPU        2.37
 TTTTTTTTTTTTTTTTTTTTTTTTTTTTTT MONMO3      TELAPSE        3.37 TCPU        2.49
 NUMERICALLY INTEGRATED DENSITY     13.9999896788
 TTTTTTTTTTTTTTTTTTTTTTTTTTTTTT NUMDFT      TELAPSE        3.45 TCPU        2.57
 CYC   8 ETOT(AU) -7.735719338641E+01 DETOT -1.44E-10 tst  1.46E-11 PX  2.26E-06
 TTTTTTTTTTTTTTTTTTTTTTTTTTTTTT DIIS        TELAPSE        3.45 TCPU        2.58
 DIIS TEST: 0.79464E-12 AT SCF   CYCLE   8 - DIIS ACTIVE - HISTORY:     8 CYCLES
 TTTTTTTTTTTTTTTTTTTTTTTTTTTTTT FDIK        TELAPSE        3.46 TCPU        2.58
 INSULATING STATE
 TOP OF VALENCE BANDS -    BAND      7; K    7; EIG -1.5220357E-01 AU
 TOP OF VALENCE BANDS -    BAND      7; K    1; EIG -3.4229369E-01 AU
 BOTTOM OF VIRTUAL BANDS - BAND      8; K    7; EIG -9.9264854E-02 AU
 DIRECT ENERGY BAND GAP:   1.4405 eV
 BOTTOM OF VIRTUAL BANDS - BAND      8; K    1; EIG  8.4742623E-02 AU
 TTTTTTTTTTTTTTTTTTTTTTTTTTTTTT PDIG        TELAPSE        3.46 TCPU        2.58
 TTTTTTTTTTTTTTTTTTTTTTTTTTTTTT MOQGAD      TELAPSE        3.46 TCPU        2.58
 TTTTTTTTTTTTTTTTTTTTTTTTTTTTTT SHELLXN     TELAPSE        3.49 TCPU        2.61
 TTTTTTTTTTTTTTTTTTTTTTTTTTTTTT MONMO3      TELAPSE        3.60 TCPU        2.72
 NUMERICALLY INTEGRATED DENSITY     13.9999896788
 TTTTTTTTTTTTTTTTTTTTTTTTTTTTTT NUMDFT      TELAPSE        3.69 TCPU        2.81
 CYC   9 ETOT(AU) -7.735719338642E+01 DETOT -5.78E-12 tst  9.77E-14 PX  3.82E-07
 TTTTTTTTTTTTTTTTTTTTTTTTTTTTTT DIIS        TELAPSE        3.69 TCPU        2.81
 DIIS TEST: 0.34766E-12 AT SCF   CYCLE   9 - DIIS ACTIVE - HISTORY:     9 CYCLES
 TTTTTTTTTTTTTTTTTTTTTTTTTTTTTT FDIK        TELAPSE        3.69 TCPU        2.81
 INSULATING STATE
 TOP OF VALENCE BANDS -    BAND      7; K    7; EIG -1.5220363E-01 AU
 TOP OF VALENCE BANDS -    BAND      7; K    1; EIG -3.4229370E-01 AU
 BOTTOM OF VIRTUAL BANDS - BAND      8; K    7; EIG -9.9264831E-02 AU
 DIRECT ENERGY BAND GAP:   1.4405 eV
 BOTTOM OF VIRTUAL BANDS - BAND      8; K    1; EIG  8.4742620E-02 AU
 TTTTTTTTTTTTTTTTTTTTTTTTTTTTTT PDIG        TELAPSE        3.69 TCPU        2.81
 TTTTTTTTTTTTTTTTTTTTTTTTTTTTTT MOQGAD      TELAPSE        3.69 TCPU        2.81
 TTTTTTTTTTTTTTTTTTTTTTTTTTTTTT SHELLXN     TELAPSE        3.72 TCPU        2.84

 ::: DIPOLE MOMENT ALONG NON PERIODIC DIRECTIONS:
 ::: A.U.     (Y)  4.68861E-08   (Z) -3.73864E-08
 ::: DEBYE        -1.19173E-07        9.50268E-08

 ::: PSEUDO TOTAL   ENERGY                        -6.8023556828516E+01
 ::: VIRIAL COEFFICIENT                            1.0609988882379E+00
 TTTTTTTTTTTTTTTTTTTTTTTTTTTTTT MONMO3      TELAPSE        3.84 TCPU        2.95
 NUMERICALLY INTEGRATED DENSITY     13.9999896788
 TTTTTTTTTTTTTTTTTTTTTTTTTTTTTT NUMDFT      TELAPSE        3.92 TCPU        3.03
 CYC  10 ETOT(AU) -7.735719338642E+01 DETOT -3.41E-12 tst  1.69E-14 PX  3.82E-07

 == SCF ENDED - CONVERGENCE ON ENERGY      E(AU) -7.7357193386422E+01 CYCLES  10


 ENERGY EXPRESSION=HARTREE+FOCK EXCH*0.20000+(BECKE      EXCH)*0.80000+LYP        CORR


 TOTAL ENERGY(DFT)(AU)( 10) -7.7357193386422E+01 DE-3.4E-12 tester 1.7E-14
 TTTTTTTTTTTTTTTTTTTTTTTTTTTTTT EDFT        TELAPSE        3.92 TCPU        3.03

 *******************************************************************************
 *                             FORCE CALCULATION                               *
 *******************************************************************************

 TTTTTTTTTTTTTTTTTTTTTTTTTTTTTT NUMDFG      TELAPSE        4.25 TCPU        3.36
 INFORMATION **** EXCPOG **** EXCH. BIPO BUFFER LENGTH (WORDS) =      310392
 INFORMATION **** GENPOG **** BIPO BUFFER LENGTH (WORDS) =       46400
 TTTTTTTTTTTTTTTTTTTTTTTTTTTTTT SHELXG      TELAPSE        4.39 TCPU        3.50

 CARTESIAN FORCES IN HARTREE/BOHR (ANALYTICAL)
   ATOM                     X                   Y                   Z
   1   6             3.597083730877E-08  1.946207657255E-07  7.128358159813E-07
   2   1            -1.759120230559E-09 -2.196137796062E-07 -1.715651745781E-07
   3   6            -3.704657514092E-08  2.480105258940E-07 -6.973965865379E-07
   4   1             2.834850446401E-09 -2.230174378504E-07  1.561259315623E-07

 RESULTANT FORCE    -7.616303421276E-15  7.416289804496E-14 -1.357248282879E-14

 SYMMETRY ALLOWED FORCES (ANALYTICAL) (DIRECTION, FORCE)

    1  4.1535547E-08    2  2.2472868E-07    3  8.3768483E-07    4  1.2530562E-08
    5 -1.8951727E-07    6  5.8871558E-07    7 -2.8200426E-08    8  3.3306610E-07
 TTTTTTTTTTTTTTTTTTTTTTTTTTTTTT TOTGRA      TELAPSE        5.42 TCPU        4.53

 HHHHHHHHHHHHHHHHHHHHHHHHHHHHHHHHHHHHHHHHHHHHHHHHHHHHHHHHHHHHHHHHHHHHHHHHHHHHHHH
                   FORCE CONSTANT MATRIX - NUMERICAL ESTIMATE
 HHHHHHHHHHHHHHHHHHHHHHHHHHHHHHHHHHHHHHHHHHHHHHHHHHHHHHHHHHHHHHHHHHHHHHHHHHHHHHH
 MAX ABS(DGRAD): MAXIMUM ABSOLUTE GRADIENT DIFFERENCE WITH RESPECT TO
                 THE CENTRAL POINT
 DE:             ENERGY DIFFERENCE WITH RESPECT TO THE CENTRAL POINT
                 (DE IS EXPECTED TO BE POSITIVE FOR ALL DISPLACEMENTS)

   ATOM      MAX ABS(DGRAD)       TOTAL ENERGY (AU)  N.CYC      DE       SYM
    CENTRAL POINT             -7.735719338642E+01    10     0.0000E+00     1
    2 H  DX   2.2348E-04      -7.735719296175E+01     6     4.2467E-07     1
    2 H  DX   2.2340E-04      -7.735719296657E+01     4     4.1985E-07     1
    2 H  DY   1.3160E-03      -7.735719088936E+01     8     2.4971E-06     1
    2 H  DY   1.3313E-03      -7.735719088097E+01     8     2.5055E-06     1
    2 H  DZ   1.7739E-04      -7.735719320019E+01     5     1.8623E-07     1
    2 H  DZ   1.7739E-04      -7.735719320148E+01     5     1.8494E-07     1
    3 C  DX   2.0678E-03      -7.735718936821E+01     6     4.0182E-06     1
    3 C  DX   2.0805E-03      -7.735718955961E+01     8     3.8268E-06     1
    3 C  DY   2.7405E-03      -7.735718826366E+01     7     5.1228E-06     1
    3 C  DY   2.7571E-03      -7.735718812252E+01     8     5.2639E-06     1
    3 C  DZ   5.2182E-04      -7.735719239762E+01     6     9.8881E-07     1
    3 C  DZ   5.2182E-04      -7.735719240292E+01     6     9.8350E-07     1
    4 H  DX   2.2340E-04      -7.735719296659E+01     4     4.1983E-07     1
    4 H  DX   2.2349E-04      -7.735719296173E+01     6     4.2469E-07     1
    4 H  DY   1.3313E-03      -7.735719087946E+01     8     2.5070E-06     1
    4 H  DY   1.3161E-03      -7.735719089085E+01     8     2.4956E-06     1
    4 H  DZ   1.7738E-04      -7.735719320143E+01     5     1.8500E-07     1
    4 H  DZ   1.7740E-04      -7.735719320025E+01     5     1.8617E-07     1

 GCALCO - MAX INDICES DIRECT LATTICE VECTOR 13998     0     0
 NO.OF VECTORS CREATED 6999 STARS 3500 RMAX 16371.14717 BOHR

 CAPPA:IS1 12;IS2  1;IS3  1; K PTS MONK NET   7; SYMMOPS:K SPACE   2;G SPACE   1

 TTTTTTTTTTTTTTTTTTTTTTTTTTTTTT gordsh1     TELAPSE       94.27 TCPU       92.68

 MATRIX SIZE: P(G)    8998, F(G)    3438, P(G) IRR    4894, F(G) IRR    3660
 MAX G-VECTOR INDEX FOR 1- AND 2-ELECTRON INTEGRALS  11

 TTTTTTTTTTTTTTTTTTTTTTTTTTTTTT INPUT       TELAPSE       94.27 TCPU       92.69

 SYMMETRY ALLOWED INTERNAL DEGREE(S) OF FREEDOM:   8
 TTTTTTTTTTTTTTTTTTTTTTTTTTTTTT SYMM        TELAPSE       94.27 TCPU       92.69
 TTTTTTTTTTTTTTTTTTTTTTTTTTTTTT INT_SCREEN  TELAPSE       94.27 TCPU       92.69

 +++ SYMMETRY ADAPTION OF VIBRATIONAL MODES +++

 SYMMETRY INFORMATION:
 K-LITTLE GROUP: CLASS TABLE, CHARACTER TABLE.
 IRREP-(DIMENSION, NO. IRREDUCIBLE SETS)
 [WARNINGS: (1) ONLY ACTIVE IRREPS ARE GENERATED AND LISTED.
            (2) ONLY RELEVANT CLASSES ARE CONSIDERED IN THE CHARACTER TABLE
            (3) SYMBOLS MAY NOT FULLY COINCIDE WITH THOSE FROM TEXT BOOKS.]

 (P, D, RP, RD, STAND FOR PAIRING, DOUBLING, REAL PAIRING AND REAL DOUBLING 
 OF THE IRREPS (SEE MANUAL))

 HHHHHHHHHHHHHHHHHHHHHHHHHHHHHHHHHHHHHHHHHHHHHHHHHHHHHHHHHHHHHHHHHHHHHHHHHHHHHH
 EIGENVALUES (EIGV) OF THE MASS WEIGHTED HESSIAN MATRIX AND HARMONIC TRANSVERSE
 OPTICAL (TO) FREQUENCIES. IRREP LABELS REFER TO SYMMETRY REPRESENTATION
 ANALYSIS; A AND I INDICATE WHETHER THE MODE IS ACTIVE OR INACTIVE,
 RESPECTIVELY, FOR IR AND RAMAN; INTEGRATED IR INTENSITIES IN BRACKETS.

 CONVERSION FACTORS FOR FREQUENCIES:
      1 CM**(-1) =   0.4556335E-05 HARTREE
      1 THZ      =   0.3335641E+02 CM**(-1)

 HHHHHHHHHHHHHHHHHHHHHHHHHHHHHHHHHHHHHHHHHHHHHHHHHHHHHHHHHHHHHHHHHHHHHHHHHHHHHH

    MODES         EIGV          FREQUENCIES     IRREP  IR   INTENS    RAMAN
             (HARTREE**2)   (CM**-1)     (THZ)             (KM/MOL)
    1-   1   -0.1862E-07    -29.9521   -0.8979  (A  )   A (     0.00)   A
    2-   2   -0.1203E-08     -7.6122   -0.2282  (A  )   A (     0.00)   A
    3-   3    0.4008E-10      1.3894    0.0417  (A  )   A (     0.00)   A
    4-   4    0.1201E-08      7.6068    0.2280  (A  )   A (     0.00)   A
    5-   5    0.1762E-04    921.2661   27.6189  (A  )   A (     0.00)   A
    6-   6    0.2327E-04   1058.7812   31.7415  (A  )   A (     0.00)   A
    7-   7    0.2987E-04   1199.5515   35.9617  (A  )   A (     0.00)   A
    8-   8    0.2997E-04   1201.5409   36.0213  (A  )   A (     0.00)   A
    9-   9    0.3670E-04   1329.6700   39.8625  (A  )   A (     0.00)   A
   10-  10    0.5439E-04   1618.6196   48.5250  (A  )   A (     0.00)   A
   11-  11    0.2049E-03   3141.5667   94.1818  (A  )   A (     0.00)   A
   12-  12    0.2065E-03   3153.7043   94.5457  (A  )   A (     0.00)   A

 NORMAL MODES NORMALIZED TO CLASSICAL AMPLITUDES (IN BOHR)

 FREQ(CM**-1)    -29.95     -7.61      1.39      7.61    921.27   1058.78

 AT.   1 C  X     0.0007   -0.5511   -0.0268    0.5516   -0.0000   -0.0000
            Y     0.0008    0.5515   -0.0268    0.5512   -0.0000   -0.0000
            Z    -0.2722    0.0001    1.7676    0.0171    0.0578   -0.0192
 AT.   2 H  X     0.0007   -0.5516   -0.0268    0.5512    0.0000    0.0000
            Y     0.0008    0.5515   -0.0268    0.5514   -0.0000   -0.0000
            Z    -1.1241    0.0004    1.5830    0.0201   -0.1581    0.2281
 AT.   3 C  X     0.0007   -0.5511   -0.0268    0.5516    0.0000   -0.0000
            Y     0.0008    0.5515   -0.0268    0.5512    0.0000    0.0000
            Z     0.2355   -0.0001    1.8778    0.0154   -0.0578   -0.0192
 AT.   4 H  X     0.0007   -0.5517   -0.0268    0.5511    0.0000    0.0000
            Y     0.0008    0.5514   -0.0268    0.5514    0.0000    0.0000
            Z     1.0874   -0.0004    2.0627    0.0125    0.1581    0.2281

 FREQ(CM**-1)   1199.55   1201.54   1329.67   1618.62   3141.57   3153.70

 AT.   1 C  X    -0.0340   -0.0169    0.0015   -0.0477   -0.0003   -0.0000
            Y    -0.0271    0.0009   -0.0510    0.0126    0.0116   -0.0111
            Z    -0.0000   -0.0000   -0.0000   -0.0000   -0.0000   -0.0000
 AT.   2 H  X    -0.1572    0.2196    0.1051    0.0881    0.0001    0.0000
            Y    -0.0273    0.0008   -0.0532    0.0147   -0.1321    0.1321
            Z    -0.0000   -0.0000    0.0000    0.0000   -0.0000    0.0000
 AT.   3 C  X     0.0328   -0.0191   -0.0015    0.0477    0.0003   -0.0000
            Y     0.0271   -0.0008    0.0510   -0.0126   -0.0116   -0.0111
            Z     0.0000    0.0000    0.0000    0.0000    0.0000   -0.0000
 AT.   4 H  X     0.1715    0.2084   -0.1055   -0.0881   -0.0001    0.0000
            Y     0.0273   -0.0009    0.0532   -0.0147    0.1319    0.1323
            Z    -0.0000   -0.0000   -0.0000    0.0000    0.0000    0.0000
 WARNING **** THERMOFRQ **** NO ROTATIONAL THERMAL CONTRIBUTIONS CONSIDERED IN 1D SYSTEMS

 *******************************************************************************

 VIBRATIONAL TEMPERATURES (K) [MODE NUMBER;IRREP]

 TO MODES
  1325.5 [   5;A  ]  1523.3 [   6;A  ]  1725.9 [   7;A  ]  1728.7 [   8;A  ]
  1913.1 [   9;A  ]  2328.8 [  10;A  ]  4520.0 [  11;A  ]  4537.5 [  12;A  ]

 *******************************************************************************

 HARMONIC VIBRATIONAL CONTRIBUTIONS TO THERMODYNAMIC FUNCTIONS AT GIVEN
 TEMPERATURE AND PRESSURE:

 (EL = ELECTRONIC ENERGY
  E0 = ZERO-POINT ENERGY
  ET = THERMAL CONTRIBUTION TO THE VIBRATIONAL ENERGY
  PV = PRESSURE * VOLUME
  TS = TEMPERATURE * ENTROPY)

                          AU/CELL             EV/CELL                 KJ/MOL
 EL            :     -77.357193386422   -2104.996247985869     -203101.28261389
 E0            :       0.031039351136       0.844623684246          81.49380492

 
 WARNING **** THERMOFRQ **** PV TERM COMPUTED ONLY FOR 3D SYSTEMS

 *******************************************************************************

 THERMODYNAMIC FUNCTIONS WITH VIBRATIONAL CONTRIBUTIONS

 AT (T =  298.15 K, P =   0.10132500E+00 MPA):

                          AU/CELL             EV/CELL                 KJ/MOL
 ET            :       0.000125488069       0.003414703968           0.32946888
 PV            :       0.000000000000       0.000000000000           0.00000000
 TS            :       0.000150038834       0.004082764226           0.39392690
 ET+PV-TS      :      -0.000024550764      -0.000668060258          -0.06445802
 EL+E0+ET+PV-TS:     -77.326178586050   -2104.152292361881     -203019.85326699

 OTHER THERMODYNAMIC FUNCTIONS:

                      mHARTREE/(CELL*K)     mEV/(CELL*K)              J/(MOL*K)
 ENTROPY       :       0.000503232714       0.013693658312           1.32123730
 HEAT CAPACITY :       0.002201374604       0.059902448369           5.77970821

 *******************************************************************************
 TTTTTTTTTTTTTTTTTTTTTTTTTTTTTT END         TELAPSE       95.71 TCPU       94.06
 EEEEEEEEEE TERMINATION  DATE 22 12 2018 TIME 17:26:54.8
NODE    0 CPU TIME =        94.061
    TOTAL CPU TIME =      3409.051
