inpf="co2.inp"

module purge
module load orca/4.1.1

job_directory="${SLURM_JOB_NAME}_${SLURM_JOB_ID}"
mkdir ${job_directory}
lfs setstripe -c 2 ${job_directory}
cp $inpf ${job_directory}/
cd ${job_directory}

cat $inpf

$(which orca) $inpf

! BP def2-SVP RI def2/J  TightSCF Grid5 NoFinalGrid
! Opt
! NumFreq

%freq CentralDiff true
      Increment 0.005
      end


%pal
nprocs 36    # parallel execution
end

% maxcore 3000

* xyz 0 1
 6                -0.000000   -0.000000    0.000000
 8                 0.000004    0.000002    1.143617
 8                -0.000004   -0.000002   -1.143617
*


                                 *****************
                                 * O   R   C   A *
                                 *****************

           --- An Ab Initio, DFT and Semiempirical electronic structure package ---

                  #######################################################
                  #                        -***-                        #
                  #          Department of theory and spectroscopy      #
                  #               Directorship: Frank Neese             #
                  #        Max Planck Institute fuer Kohlenforschung    #
                  #                Kaiser Wilhelm Platz 1               #
                  #                 D-45470 Muelheim/Ruhr               #
                  #                      Germany                        #
                  #                                                     #
                  #                  All rights reserved                #
                  #                        -***-                        #
                  #######################################################


                         Program Version 4.1.1  - RELEASE  -


 With contributions from (in alphabetic order):
   Daniel Aravena         : Magnetic Properties
   Michael Atanasov       : Ab Initio Ligand Field Theory
   Alexander A. Auer      : GIAO ZORA
   Ute Becker             : Parallelization
   Giovanni Bistoni       : ED, Open-shell LED
   Martin Brehm           : Molecular dynamics
   Dmytro Bykov           : SCF Hessian
   Vijay G. Chilkuri      : MRCI spin determinant printing
   Dipayan Datta          : RHF DLPNO-CCSD density
   Achintya Kumar Dutta   : EOM-CC, STEOM-CC
   Dmitry Ganyushin       : Spin-Orbit,Spin-Spin,Magnetic field MRCI
   Miquel Garcia          : C-PCM Hessian
   Yang Guo               : DLPNO-NEVPT2, CIM, IAO-localization
   Andreas Hansen         : Spin unrestricted coupled pair/coupled cluster methods
   Benjamin Helmich-Paris : CASSCF linear response (MC-RPA)
   Lee Huntington         : MR-EOM, pCC
   Robert Izsak           : Overlap fitted RIJCOSX, COSX-SCS-MP3, EOM
   Christian Kollmar      : KDIIS, OOCD, Brueckner-CCSD(T), CCSD density
   Simone Kossmann        : Meta GGA functionals, TD-DFT gradient, OOMP2, MP2 Hessian
   Martin Krupicka        : AUTO-CI
   Lucas Lang             : DCDCAS
   Dagmar Lenk            : GEPOL surface, SMD
   Dimitrios Liakos       : Extrapolation schemes; parallel MDCI
   Dimitrios Manganas     : ROCIS; embedding schemes
   Dimitrios Pantazis     : SARC Basis sets
   Taras Petrenko         : DFT Hessian,TD-DFT gradient, ASA, ECA, R-Raman, ABS, FL, XAS/XES, NRVS
   Peter Pinski           : DLPNO-MP2, DLPNO-MP2 Gradient
   Christoph Reimann      : Effective Core Potentials
   Marius Retegan         : Local ZFS, SOC
   Christoph Riplinger    : Optimizer, TS searches, QM/MM, DLPNO-CCSD(T), (RO)-DLPNO pert. Triples
   Tobias Risthaus        : Range-separated hybrids, TD-DFT gradient, RPA, STAB
   Michael Roemelt        : Restricted open shell CIS
   Masaaki Saitow         : Open-shell DLPNO
   Barbara Sandhoefer     : DKH picture change effects
   Avijit Sen             : IP-ROCIS
   Kantharuban Sivalingam : CASSCF convergence, NEVPT2, FIC-MRCI
   Bernardo de Souza      : ESD, SOC TD-DFT
   Georgi Stoychev        : AutoAux, RI-MP2 NMR
   Willem Van den Heuvel  : Paramagnetic NMR
   Boris Wezisla          : Elementary symmetry handling
   Frank Wennmohs         : Technical directorship


 We gratefully acknowledge several colleagues who have allowed us to
 interface, adapt or use parts of their codes:
   Stefan Grimme, W. Hujo, H. Kruse,             : VdW corrections, initial TS optimization,
                  C. Bannwarth                     DFT functionals, gCP, sTDA/sTD-DF
   Ed Valeev                                     : LibInt (2-el integral package), F12 methods
   Garnet Chan, S. Sharma, J. Yang, R. Olivares  : DMRG
   Ulf Ekstrom                                   : XCFun DFT Library
   Mihaly Kallay                                 : mrcc  (arbitrary order and MRCC methods)
   Andreas Klamt, Michael Diedenhofen            : otool_cosmo (COSMO solvation model)
   Jiri Pittner, Ondrej Demel                    : Mk-CCSD
   Frank Weinhold                                : gennbo (NPA and NBO analysis)
   Christopher J. Cramer and Donald G. Truhlar   : smd solvation model
   Lars Goerigk                                  : TD-DFT with DH, B97 family of functionals
   V. Asgeirsson, H. Jonsson                     : NEB implementation
   FAccTs GmbH                                   : IRC, NEB, NEB-TS, Multilevel


 Your calculation uses the libint2 library for the computation of 2-el integrals
 For citations please refer to: http://libint.valeyev.net

 This ORCA versions uses:
   CBLAS   interface :  Fast vector & matrix operations
   LAPACKE interface :  Fast linear algebra routines
   SCALAPACK package :  Parallel linear algebra routines


----- Orbital basis set information -----
Your calculation utilizes the basis: def2-SVP
   F. Weigend and R. Ahlrichs, Phys. Chem. Chem. Phys. 7, 3297 (2005).

----- AuxJ basis set information -----
Your calculation utilizes the auxiliary basis: def2/J
   F. Weigend, Phys. Chem. Chem. Phys. 8, 1057 (2006).

================================================================================
                                        WARNINGS
                       Please study these warnings very carefully!
================================================================================


WARNING: The environment variable RSH_COMMAND is not set!
  ===> : All Displacements for the Numerical Hessian calculation
         will be started on localhost

WARNING: Geometry Optimization
  ===> : Switching off AutoStart
         For restart on a previous wavefunction, please use MOREAD

INFO   : the flag for use of LIBINT has been found!

================================================================================
                                       INPUT FILE
================================================================================
NAME = co2.inp
|  1> ! BP def2-SVP RI def2/J  TightSCF Grid5 NoFinalGrid
|  2> ! Opt
|  3> ! NumFreq
|  4> 
|  5> %freq CentralDiff true
|  6>       Increment 0.005
|  7>       end
|  8> 
|  9> 
| 10> %pal
| 11> nprocs 36    # parallel execution
| 12> end
| 13> 
| 14> % maxcore 3000
| 15> 
| 16> * xyz 0 1
| 17>  6                -0.000000   -0.000000    0.000000
| 18>  8                 0.000004    0.000002    1.143617
| 19>  8                -0.000004   -0.000002   -1.143617
| 20> *
| 21> 
| 22> 
| 23>                          ****END OF INPUT****
================================================================================

                       *****************************
                       * Geometry Optimization Run *
                       *****************************

Geometry optimization settings:
Update method            Update   .... BFGS
Choice of coordinates    CoordSys .... Z-matrix Internals
Initial Hessian          InHess   .... Almoef's Model

Convergence Tolerances:
Energy Change            TolE     ....  5.0000e-06 Eh
Max. Gradient            TolMAXG  ....  3.0000e-04 Eh/bohr
RMS Gradient             TolRMSG  ....  1.0000e-04 Eh/bohr
Max. Displacement        TolMAXD  ....  4.0000e-03 bohr
RMS Displacement         TolRMSD  ....  2.0000e-03 bohr

------------------------------------------------------------------------------
                        ORCA OPTIMIZATION COORDINATE SETUP
------------------------------------------------------------------------------

The optimization will be done in new redundant internal coordinates
Making redundant internal coordinates   ...  (new redundants) done
Evaluating the initial hessian          ...  (Almloef) done
Evaluating the coordinates              ...  done
Calculating the B-matrix                .... done
Calculating the G-matrix                .... done
Diagonalizing the G-matrix              .... done
The first mode is                       ....    0
The number of degrees of freedom        ....    4

    -----------------------------------------------------------------
                    Redundant Internal Coordinates


    -----------------------------------------------------------------
         Definition                    Initial Value    Approx d2E/dq
    -----------------------------------------------------------------
      1. B(O   1,C   0)                  1.1436         1.383451   
      2. B(O   2,C   0)                  1.1436         1.383451   
      3. L(O   1,C   0,O   2, 2)       180.0000         0.577107   
      4. L(O   1,C   0,O   2, 1)       180.0000         0.577107   
    -----------------------------------------------------------------

Number of atoms                         .... 3
Number of degrees of freedom            .... 4

         *************************************************************
         *                GEOMETRY OPTIMIZATION CYCLE   1            *
         *************************************************************
---------------------------------
CARTESIAN COORDINATES (ANGSTROEM)
---------------------------------
  C     -0.000000   -0.000000    0.000000
  O      0.000004    0.000002    1.143617
  O     -0.000004   -0.000002   -1.143617

----------------------------
CARTESIAN COORDINATES (A.U.)
----------------------------
  NO LB      ZA    FRAG     MASS         X           Y           Z
   0 C     6.0000    0    12.011   -0.000000   -0.000000    0.000000
   1 O     8.0000    0    15.999    0.000008    0.000004    2.161123
   2 O     8.0000    0    15.999   -0.000008   -0.000004   -2.161123

--------------------------------
INTERNAL COORDINATES (ANGSTROEM)
--------------------------------
 C      0   0   0     0.000000000000     0.00000000     0.00000000
 O      1   0   0     1.143617000009     0.00000000     0.00000000
 O      1   2   0     1.143617000009   180.00000000     0.00000000

---------------------------
INTERNAL COORDINATES (A.U.)
---------------------------
 C      0   0   0     0.000000000000     0.00000000     0.00000000
 O      1   0   0     2.161122932113     0.00000000     0.00000000
 O      1   2   0     2.161122932113   180.00000000     0.00000000

---------------------
BASIS SET INFORMATION
---------------------
There are 2 groups of distinct atoms

 Group   1 Type C   : 7s4p1d contracted to 3s2p1d pattern {511/31/1}
 Group   2 Type O   : 7s4p1d contracted to 3s2p1d pattern {511/31/1}

Atom   0C    basis set group =>   1
Atom   1O    basis set group =>   2
Atom   2O    basis set group =>   2
-------------------------------
AUXILIARY BASIS SET INFORMATION
-------------------------------
There are 2 groups of distinct atoms

 Group   1 Type C   : 12s5p4d2f1g contracted to 6s4p3d1f1g pattern {711111/2111/211/2/1}
 Group   2 Type O   : 12s5p4d2f1g contracted to 6s4p3d1f1g pattern {711111/2111/211/2/1}

Atom   0C    basis set group =>   1
Atom   1O    basis set group =>   2
Atom   2O    basis set group =>   2


           ************************************************************
           *        Program running with 36 parallel MPI-processes    *
           *              working on a common directory               *
           ************************************************************
------------------------------------------------------------------------------
                           ORCA GTO INTEGRAL CALCULATION
                           -- RI-GTO INTEGRALS CHOSEN --
------------------------------------------------------------------------------

                         BASIS SET STATISTICS AND STARTUP INFO

Gaussian basis set:
 # of primitive gaussian shells          ...   36
 # of primitive gaussian functions       ...   72
 # of contracted shells                  ...   18
 # of contracted basis functions         ...   42
 Highest angular momentum                ...    2
 Maximum contraction depth               ...    5
Auxiliary gaussian basis set:
 # of primitive gaussian shells          ...   72
 # of primitive gaussian functions       ...  210
 # of contracted shells                  ...   45
 # of contracted aux-basis functions     ...  147
 Highest angular momentum                ...    4
 Maximum contraction depth               ...    7
Ratio of auxiliary to basis functions    ...  3.50
Integral package used                  ... LIBINT
 One Electron integrals                  ... done
 Ordering auxiliary basis shells         ... done
 Integral threshhold             Thresh  ...  2.500e-11
 Primitive cut-off               TCut    ...  2.500e-12
 Pre-screening matrix                    ... done
 Shell pair data                         ... 
 Ordering of the shell pairs             ... done (   0.000 sec) 170 of 171 pairs
 Determination of significant pairs      ... done (   0.000 sec)
 Creation of shell pair data             ... done (   0.000 sec)
 Storage of shell pair data              ... done (   0.033 sec)
 Shell pair data done in (   0.033 sec)
 Computing two index integrals           ... done
 Cholesky decomposition of the V-matrix  ... done


Timings:
 Total evaluation time                   ...   0.312 sec (  0.005 min)
 One electron matrix time                ...   0.022 sec (  0.000 min) =  7.0%
 Schwartz matrix evaluation time         ...   0.213 sec (  0.004 min) = 68.2%
 Two index repulsion integral time       ...   0.003 sec (  0.000 min) =  1.0%
 Cholesky decomposition of V             ...   0.019 sec (  0.000 min) =  6.1%
 Three index repulsion integral time     ...   0.000 sec (  0.000 min) =  0.0%



           ************************************************************
           *        Program running with 36 parallel MPI-processes    *
           *              working on a common directory               *
           ************************************************************
-------------------------------------------------------------------------------
                                 ORCA SCF
-------------------------------------------------------------------------------

------------
SCF SETTINGS
------------
Hamiltonian:
 Density Functional     Method          .... DFT(GTOs)
 Exchange Functional    Exchange        .... B88
   X-Alpha parameter    XAlpha          ....  0.666667
   Becke's b parameter  XBeta           ....  0.004200
 Correlation Functional Correlation     .... P86
 LDA part of GGA corr.  LDAOpt          .... PW91-LDA
 Gradients option       PostSCFGGA      .... off
   Density functional embedding theory  .... OFF
 RI-approximation to the Coulomb term is turned on
   Number of auxiliary basis functions  .... 147


General Settings:
 Integral files         IntName         .... co2
 Hartree-Fock type      HFTyp           .... RHF
 Total Charge           Charge          ....    0
 Multiplicity           Mult            ....    1
 Number of Electrons    NEL             ....   22
 Basis Dimension        Dim             ....   42
 Nuclear Repulsion      ENuc            ....     59.2284678016 Eh

Convergence Acceleration:
 DIIS                   CNVDIIS         .... on
   Start iteration      DIISMaxIt       ....    12
   Startup error        DIISStart       ....  0.200000
   # of expansion vecs  DIISMaxEq       ....     5
   Bias factor          DIISBfac        ....   1.050
   Max. coefficient     DIISMaxC        ....  10.000
 Newton-Raphson         CNVNR           .... off
 SOSCF                  CNVSOSCF        .... on
   Start iteration      SOSCFMaxIt      ....   150
   Startup grad/error   SOSCFStart      ....  0.003300
 Level Shifting         CNVShift        .... on
   Level shift para.    LevelShift      ....    0.2500
   Turn off err/grad.   ShiftErr        ....    0.0010
 Zerner damping         CNVZerner       .... off
 Static damping         CNVDamp         .... on
   Fraction old density DampFac         ....    0.7000
   Max. Damping (<1)    DampMax         ....    0.9800
   Min. Damping (>=0)   DampMin         ....    0.0000
   Turn off err/grad.   DampErr         ....    0.1000
 Fernandez-Rico         CNVRico         .... off

SCF Procedure:
 Maximum # iterations   MaxIter         ....   125
 SCF integral mode      SCFMode         .... Direct
   Integral package                     .... LIBINT
 Reset frequency        DirectResetFreq ....    20
 Integral Threshold     Thresh          ....  2.500e-11 Eh
 Primitive CutOff       TCut            ....  2.500e-12 Eh

Convergence Tolerance:
 Convergence Check Mode ConvCheckMode   .... Total+1el-Energy
 Convergence forced     ConvForced      .... 0
 Energy Change          TolE            ....  1.000e-08 Eh
 1-El. energy change                    ....  1.000e-05 Eh
 Orbital Gradient       TolG            ....  1.000e-05
 Orbital Rotation angle TolX            ....  1.000e-05
 DIIS Error             TolErr          ....  5.000e-07


Diagonalization of the overlap matrix:
Smallest eigenvalue                        ... 9.037e-03
Time for diagonalization                   ...    0.002 sec
Threshold for overlap eigenvalues          ... 1.000e-08
Number of eigenvalues below threshold      ... 0
Time for construction of square roots      ...    0.374 sec
Total time needed                          ...    0.376 sec

-------------------
DFT GRID GENERATION
-------------------

General Integration Accuracy     IntAcc      ...  5.010
Radial Grid Type                 RadialGrid  ... Gauss-Chebyshev
Angular Grid (max. acc.)         AngularGrid ... Lebedev-434
Angular grid pruning method      GridPruning ... 3 (G Style)
Weight generation scheme         WeightScheme... Becke
Basis function cutoff            BFCut       ...    1.0000e-11
Integration weight cutoff        WCut        ...    1.0000e-14
Grids for H and He will be reduced by one unit

# of grid points (after initial pruning)     ...  32382 (   0.0 sec)
# of grid points (after weights+screening)   ...  31992 (   0.0 sec)
nearest neighbour list constructed           ...    0.0 sec
Grid point re-assignment to atoms done       ...    0.0 sec
Grid point division into batches done        ...    0.3 sec
Reduced shell lists constructed in    0.3 sec

Total number of grid points                  ...    31992
Total number of batches                      ...      502
Average number of points per batch           ...       63
Average number of grid points per atom       ...    10664
Average number of shells per batch           ...     6.13 (34.07%)
Average number of basis functions per batch  ...    13.60 (32.38%)
Average number of large shells per batch     ...     4.80 (78.26%)
Average number of large basis fcns per batch ...     9.87 (72.55%)
Maximum spatial batch extension              ...  27.58, 27.58,  2.04 au
Average spatial batch extension              ...   0.31,  0.29,  0.05 au

Time for grid setup =    0.614 sec

------------------------------
INITIAL GUESS: MODEL POTENTIAL
------------------------------
Loading Hartree-Fock densities                     ... done
Calculating cut-offs                               ... done
Setting up the integral package                    ... done
Initializing the effective Hamiltonian             ... done
Starting the Coulomb interaction                   ... done (   0.0 sec)
Reading the grid                                   ... done
Mapping shells                                     ... done
Starting the XC term evaluation                    ... done (   0.0 sec)
  promolecular density results
     # of electrons  =     21.999993315
     EX              =    -21.527436329
     EC              =     -0.813274566
     EX+EC           =    -22.340710895
Transforming the Hamiltonian                       ... done (   0.0 sec)
Diagonalizing the Hamiltonian                      ... done (   0.0 sec)
Back transforming the eigenvectors                 ... done (   0.0 sec)
Now organizing SCF variables                       ... done
                      ------------------
                      INITIAL GUESS DONE (   0.8 sec)
                      ------------------
--------------
SCF ITERATIONS
--------------
ITER       Energy         Delta-E        Max-DP      RMS-DP      [F,P]     Damp
               ***  Starting incremental Fock matrix formation  ***
  0   -188.3512756752   0.000000000000 0.08653462  0.00626086  0.1997063 0.7000
  1   -188.4054399744  -0.054164299263 0.03526160  0.00292114  0.0657385 0.7000
                               ***Turning on DIIS***
  2   -188.4182738705  -0.012833896079 0.03358360  0.00271670  0.0164275 0.0000
  3   -188.4502018926  -0.031928022075 0.02549411  0.00178570  0.0356286 0.0000
  4   -188.4529005376  -0.002698645051 0.01601085  0.00066608  0.0109288 0.0000
                      *** Initiating the SOSCF procedure ***
                           *** Shutting down DIIS ***
                      *** Re-Reading the Fockian *** 
                      *** Removing any level shift *** 
ITER      Energy       Delta-E        Grad      Rot      Max-DP    RMS-DP
  5   -188.45319049  -0.0002899491  0.000621  0.000621  0.002980  0.000130
               *** Restarting incremental Fock matrix formation ***
  6   -188.45320537  -0.0000148793  0.000357  0.000745  0.001159  0.000072
  7   -188.45320306   0.0000023063  0.000787  0.000519  0.000787  0.000049
  8   -188.45320603  -0.0000029731  0.000008  0.000007  0.000026  0.000002
  9   -188.45320603   0.0000000013  0.000006  0.000003  0.000011  0.000001
                 **** Energy Check signals convergence ****
              ***Rediagonalizing the Fockian in SOSCF/NRSCF***

               *****************************************************
               *                     SUCCESS                       *
               *           SCF CONVERGED AFTER  10 CYCLES          *
               *****************************************************


----------------
TOTAL SCF ENERGY
----------------

Total Energy       :         -188.45320603 Eh           -5128.07244 eV

Components:
Nuclear Repulsion  :           59.22846780 Eh            1611.68855 eV
Electronic Energy  :         -247.68167383 Eh           -6739.76099 eV
One Electron Energy:         -374.33842796 Eh          -10186.26648 eV
Two Electron Energy:          126.65675412 Eh            3446.50550 eV

Virial components:
Potential Energy   :         -375.65084055 Eh          -10221.97905 eV
Kinetic Energy     :          187.19763452 Eh            5093.90660 eV
Virial Ratio       :            2.00670720


DFT components:
N(Alpha)           :       10.999998105502 electrons
N(Beta)            :       10.999998105502 electrons
N(Total)           :       21.999996211005 electrons
E(X)               :      -21.763823415052 Eh       
E(C)               :       -0.824297100041 Eh       
E(XC)              :      -22.588120515094 Eh       
DFET-embed. en.    :        0.000000000000 Eh       

---------------
SCF CONVERGENCE
---------------

  Last Energy change         ...   -1.3251e-09  Tolerance :   1.0000e-08
  Last MAX-Density change    ...    1.3877e-07  Tolerance :   1.0000e-07
  Last RMS-Density change    ...    1.0350e-08  Tolerance :   5.0000e-09
  Last Orbital Gradient      ...    7.7156e-08  Tolerance :   1.0000e-05
  Last Orbital Rotation      ...    3.9363e-08  Tolerance :   1.0000e-05

             **** THE GBW FILE WAS UPDATED (co2.gbw) ****
             **** DENSITY FILE WAS UPDATED (co2.scfp.tmp) ****
             **** ENERGY FILE WAS UPDATED (co2.en.tmp) ****
----------------
ORBITAL ENERGIES
----------------

  NO   OCC          E(Eh)            E(eV) 
   0   2.0000     -18.852344      -512.9983 
   1   2.0000     -18.852283      -512.9967 
   2   2.0000     -10.080543      -274.3055 
   3   2.0000      -1.065377       -28.9904 
   4   2.0000      -1.029719       -28.0201 
   5   2.0000      -0.487651       -13.2697 
   6   2.0000      -0.470627       -12.8064 
   7   2.0000      -0.470627       -12.8064 
   8   2.0000      -0.455795       -12.4028 
   9   2.0000      -0.327569        -8.9136 
  10   2.0000      -0.327569        -8.9136 
  11   0.0000       0.008907         0.2424 
  12   0.0000       0.008907         0.2424 
  13   0.0000       0.040602         1.1048 
  14   0.0000       0.323276         8.7968 
  15   0.0000       0.389452        10.5975 
  16   0.0000       0.389452        10.5975 
  17   0.0000       0.442342        12.0367 
  18   0.0000       0.722349        19.6561 
  19   0.0000       0.751176        20.4405 
  20   0.0000       0.843531        22.9536 
  21   0.0000       0.843531        22.9536 
  22   0.0000       1.039791        28.2941 
  23   0.0000       1.039791        28.2941 
  24   0.0000       1.045502        28.4496 
  25   0.0000       1.182581        32.1797 
  26   0.0000       1.457043        39.6482 
  27   0.0000       1.457043        39.6482 
  28   0.0000       1.502769        40.8924 
  29   0.0000       1.517938        41.3052 
  30   0.0000       1.517938        41.3052 
  31   0.0000       2.455158        66.8082 
  32   0.0000       2.455158        66.8082 
  33   0.0000       2.585741        70.3616 
  34   0.0000       2.585741        70.3616 
  35   0.0000       2.692112        73.2561 
  36   0.0000       2.692112        73.2561 
  37   0.0000       2.810189        76.4691 
  38   0.0000       3.478638        94.6585 
  39   0.0000       3.491476        95.0079 
  40   0.0000       3.491476        95.0079 
  41   0.0000       3.764278       102.4312 

                    ********************************
                    * MULLIKEN POPULATION ANALYSIS *
                    ********************************

-----------------------
MULLIKEN ATOMIC CHARGES
-----------------------
   0 C :    0.199170
   1 O :   -0.099585
   2 O :   -0.099585
Sum of atomic charges:    0.0000000

--------------------------------
MULLIKEN REDUCED ORBITAL CHARGES
--------------------------------
  0 C s       :     2.951721  s :     2.951721
      pz      :     0.990656  p :     2.703345
      px      :     0.856344
      py      :     0.856344
      dz2     :     0.028475  d :     0.145765
      dxz     :     0.058645
      dyz     :     0.058645
      dx2y2   :     0.000000
      dxy     :     0.000000
  1 O s       :     3.709718  s :     3.709718
      pz      :     1.295015  p :     4.366016
      px      :     1.535501
      py      :     1.535501
      dz2     :     0.009841  d :     0.023850
      dxz     :     0.007005
      dyz     :     0.007005
      dx2y2   :     0.000000
      dxy     :     0.000000
  2 O s       :     3.709718  s :     3.709718
      pz      :     1.295015  p :     4.366016
      px      :     1.535501
      py      :     1.535501
      dz2     :     0.009841  d :     0.023850
      dxz     :     0.007005
      dyz     :     0.007005
      dx2y2   :     0.000000
      dxy     :     0.000000


                     *******************************
                     * LOEWDIN POPULATION ANALYSIS *
                     *******************************

----------------------
LOEWDIN ATOMIC CHARGES
----------------------
   0 C :    0.068596
   1 O :   -0.034298
   2 O :   -0.034298

-------------------------------
LOEWDIN REDUCED ORBITAL CHARGES
-------------------------------
  0 C s       :     2.798286  s :     2.798286
      pz      :     1.108041  p :     2.799579
      px      :     0.845769
      py      :     0.845769
      dz2     :     0.089216  d :     0.333539
      dxz     :     0.122162
      dyz     :     0.122162
      dx2y2   :     0.000000
      dxy     :     0.000000
  1 O s       :     3.517914  s :     3.517914
      pz      :     1.462828  p :     4.476734
      px      :     1.506953
      py      :     1.506953
      dz2     :     0.021486  d :     0.039649
      dxz     :     0.009082
      dyz     :     0.009082
      dx2y2   :     0.000000
      dxy     :     0.000000
  2 O s       :     3.517914  s :     3.517914
      pz      :     1.462828  p :     4.476734
      px      :     1.506953
      py      :     1.506953
      dz2     :     0.021486  d :     0.039649
      dxz     :     0.009082
      dyz     :     0.009082
      dx2y2   :     0.000000
      dxy     :     0.000000


                      *****************************
                      * MAYER POPULATION ANALYSIS *
                      *****************************

  NA   - Mulliken gross atomic population
  ZA   - Total nuclear charge
  QA   - Mulliken gross atomic charge
  VA   - Mayer's total valence
  BVA  - Mayer's bonded valence
  FA   - Mayer's free valence

  ATOM       NA         ZA         QA         VA         BVA        FA
  0 C      5.8008     6.0000     0.1992     4.3802     4.3802     0.0000
  1 O      8.0996     8.0000    -0.0996     2.4900     2.4900     0.0000
  2 O      8.0996     8.0000    -0.0996     2.4900     2.4900     0.0000

  Mayer bond orders larger than 0.1
B(  0-C ,  1-O ) :   2.1901 B(  0-C ,  2-O ) :   2.1901 B(  1-O ,  2-O ) :   0.2999 


-------
TIMINGS
-------

Total SCF time: 0 days 0 hours 0 min 31 sec 

Total time                  ....      31.609 sec
Sum of individual times     ....      30.915 sec  ( 97.8%)

Fock matrix formation       ....      29.946 sec  ( 94.7%)
  Split-RI-J                ....       1.657 sec  (  5.5% of F)
  XC integration            ....      27.640 sec  ( 92.3% of F)
    Basis function eval.    ....       0.013 sec  (  0.0% of XC)
    Density eval.           ....       0.036 sec  (  0.1% of XC)
    XC-Functional eval.     ....       0.061 sec  (  0.2% of XC)
    XC-Potential eval.      ....       0.005 sec  (  0.0% of XC)
Diagonalization             ....       0.066 sec  (  0.2%)
Density matrix formation    ....       0.003 sec  (  0.0%)
Population analysis         ....       0.038 sec  (  0.1%)
Initial guess               ....       0.179 sec  (  0.6%)
Orbital Transformation      ....       0.000 sec  (  0.0%)
Orbital Orthonormalization  ....       0.000 sec  (  0.0%)
DIIS solution               ....       0.036 sec  (  0.1%)
SOSCF solution              ....       0.034 sec  (  0.1%)
Grid generation             ....       0.614 sec  (  1.9%)

-------------------------   --------------------
FINAL SINGLE POINT ENERGY      -188.453206032809
-------------------------   --------------------



           ************************************************************
           *        Program running with 36 parallel MPI-processes    *
           *              working on a common directory               *
           ************************************************************
------------------------------------------------------------------------------
                         ORCA SCF GRADIENT CALCULATION
------------------------------------------------------------------------------

Gradient of the Kohn-Sham DFT energy:
Kohn-Sham wavefunction type      ... RKS
Hartree-Fock exchange scaling    ...    0.000
Number of operators              ...    1
Number of atoms                  ...    3
Basis set dimensions             ...   42
Integral neglect threshold       ... 2.5e-11
Integral primitive cutoff        ... 2.5e-12

Nuclear repulsion gradient       ... done
One Electron Gradient            ... done
Pre-screening matrix             ... done
RI-J gradient                    ... done
Exchange-correlation gradient    ... done

------------------
CARTESIAN GRADIENT
------------------

   1   C   :   -0.000000000   -0.000000000   -0.000000000
   2   O   :   -0.000000247   -0.000000123   -0.070789603
   3   O   :    0.000000248    0.000000124    0.070789603

Difference to translation invariance:
           :    0.0000000000   -0.0000000000    0.0000000000

Norm of the cartesian gradient     ...    0.1001116169
RMS gradient                       ...    0.0333705390
MAX gradient                       ...    0.0707896034

-------
TIMINGS
-------

Total SCF gradient time            ...        0.347 sec

One electron gradient       ....       0.002 sec  (  0.5%)
Prescreening matrices       ....       0.004 sec  (  1.2%)
RI-J Coulomb gradient       ....       0.117 sec  ( 33.9%)
XC gradient                 ....       0.016 sec  (  4.7%)
------------------------------------------------------------------------------
                         ORCA GEOMETRY RELAXATION STEP
------------------------------------------------------------------------------

Reading the OPT-File                    .... done
Getting information on internals        .... done
Copying old internal coords+grads       .... done
Making the new internal coordinates     .... (new redundants).... done
Validating the new internal coordinates .... (new redundants).... done
Calculating the B-matrix                .... done
Calculating the G,G- and P matrices     .... done
Transforming gradient to internals      .... done
Projecting the internal gradient        .... done
Number of atoms                         ....   3
Number of internal coordinates          ....   4
Current Energy                          ....  -188.453206033 Eh
Current gradient norm                   ....     0.100111617 Eh/bohr
Maximum allowed component of the step   ....  0.300
Current trust radius                    ....  0.300
Evaluating the initial hessian          ....  (Almloef) done
Projecting the Hessian                  .... done
Forming the augmented Hessian           .... done
Diagonalizing the augmented Hessian     .... done
Last element of RFO vector              ....  0.997418844
Lowest eigenvalues of augmented Hessian:
 -0.007206902  0.577107266  0.577107266  1.383451127
Length of the computed step             ....  0.071988666
The final length of the internal step   ....  0.071988666
Converting the step to cartesian space:
 Initial RMS(Int)=    0.0359943332
Transforming coordinates:
 Iter   0:  RMS(Cart)=    0.0239962221 RMS(Int)=    0.0359943332
 Iter   1:  RMS(Cart)=    0.0000000035 RMS(Int)=    0.0000000129
done
Storing new coordinates                 .... done

                                .--------------------.
          ----------------------|Geometry convergence|-------------------------
          Item                value                   Tolerance       Converged
          ---------------------------------------------------------------------
          RMS gradient        0.0500558084            0.0001000000      NO
          MAX gradient        0.0707896034            0.0003000000      NO
          RMS step            0.0359943332            0.0020000000      NO
          MAX step            0.0509036743            0.0040000000      NO
          ........................................................
          Max(Bonds)      0.0269      Max(Angles)    0.00
          Max(Dihed)        0.00      Max(Improp)    0.00
          ---------------------------------------------------------------------

The optimization has not yet converged - more geometry cycles are needed


    ---------------------------------------------------------------------------
                         Redundant Internal Coordinates
                            (Angstroem and degrees)

        Definition                    Value    dE/dq     Step     New-Value
    ----------------------------------------------------------------------------
     1. B(O   1,C   0)                1.1436 -0.070790  0.0269    1.1706   
     2. B(O   2,C   0)                1.1436 -0.070790  0.0269    1.1706   
     3. L(O   1,C   0,O   2, 2)       180.00 -0.000000    0.00    180.00   
     4. L(O   1,C   0,O   2, 1)       180.00  0.000000   -0.00    180.00   
    ----------------------------------------------------------------------------

         *************************************************************
         *                GEOMETRY OPTIMIZATION CYCLE   2            *
         *************************************************************
---------------------------------
CARTESIAN COORDINATES (ANGSTROEM)
---------------------------------
  C      0.000000   -0.000000    0.000000
  O      0.000004    0.000002    1.170554
  O     -0.000004   -0.000002   -1.170554

----------------------------
CARTESIAN COORDINATES (A.U.)
----------------------------
  NO LB      ZA    FRAG     MASS         X           Y           Z
   0 C     6.0000    0    12.011    0.000000   -0.000000    0.000000
   1 O     8.0000    0    15.999    0.000008    0.000004    2.212027
   2 O     8.0000    0    15.999   -0.000008   -0.000004   -2.212027

--------------------------------
INTERNAL COORDINATES (ANGSTROEM)
--------------------------------
 C      0   0   0     0.000000000000     0.00000000     0.00000000
 O      1   0   0     1.170554064110     0.00000000     0.00000000
 O      1   2   0     1.170554064267   180.00000000     0.00000000

---------------------------
INTERNAL COORDINATES (A.U.)
---------------------------
 C      0   0   0     0.000000000000     0.00000000     0.00000000
 O      1   0   0     2.212026606116     0.00000000     0.00000000
 O      1   2   0     2.212026606413   180.00000000     0.00000000



           ************************************************************
           *        Program running with 36 parallel MPI-processes    *
           *              working on a common directory               *
           ************************************************************
 One Electron integrals                  ... done
 Pre-screening matrix                    ... done


           ************************************************************
           *        Program running with 36 parallel MPI-processes    *
           *              working on a common directory               *
           ************************************************************

Diagonalization of the overlap matrix:
Smallest eigenvalue                        ... 9.176e-03
Time for diagonalization                   ...    0.001 sec
Threshold for overlap eigenvalues          ... 1.000e-08
Number of eigenvalues below threshold      ... 0
Time for construction of square roots      ...    0.008 sec
Total time needed                          ...    0.009 sec

-------------------
DFT GRID GENERATION
-------------------

General Integration Accuracy     IntAcc      ...  5.010
Radial Grid Type                 RadialGrid  ... Gauss-Chebyshev
Angular Grid (max. acc.)         AngularGrid ... Lebedev-434
Angular grid pruning method      GridPruning ... 3 (G Style)
Weight generation scheme         WeightScheme... Becke
Basis function cutoff            BFCut       ...    1.0000e-11
Integration weight cutoff        WCut        ...    1.0000e-14
Grids for H and He will be reduced by one unit

# of grid points (after initial pruning)     ...  32382 (   0.0 sec)
# of grid points (after weights+screening)   ...  31994 (   0.0 sec)
nearest neighbour list constructed           ...    0.0 sec
Grid point re-assignment to atoms done       ...    0.0 sec
Grid point division into batches done        ...    0.3 sec
Reduced shell lists constructed in    0.3 sec

Total number of grid points                  ...    31994
Total number of batches                      ...      501
Average number of points per batch           ...       63
Average number of grid points per atom       ...    10665
Average number of shells per batch           ...     5.33 (29.63%)
Average number of basis functions per batch  ...    11.47 (27.30%)
Average number of large shells per batch     ...     3.93 (73.75%)
Average number of large basis fcns per batch ...     8.60 (75.00%)
Maximum spatial batch extension              ...  27.58, 27.58,  2.20 au
Average spatial batch extension              ...   0.31,  0.30,  0.06 au

Time for grid setup =    0.395 sec

--------------
SCF ITERATIONS
--------------
ITER       Energy         Delta-E        Max-DP      RMS-DP      [F,P]     Damp
               ***  Starting incremental Fock matrix formation  ***
  0   -188.4561392352   0.000000000000 0.00415309  0.00047220  0.0147002 0.7000
                      *** Initiating the SOSCF procedure ***
                      *** Re-Reading the Fockian *** 
                      *** Removing any level shift *** 
ITER      Energy       Delta-E        Grad      Rot      Max-DP    RMS-DP
  1   -188.45648451  -0.0003452777  0.002274  0.002274  0.012022  0.001274
               *** Restarting incremental Fock matrix formation ***
  2   -188.45710116  -0.0006166439  0.003068  0.002626  0.007292  0.000573
  3   -188.45711486  -0.0000137013  0.002947  0.001254  0.003106  0.000248
  4   -188.45715953  -0.0000446718  0.001048  0.001642  0.004388  0.000211
  5   -188.45715172   0.0000078068  0.001325  0.000915  0.002838  0.000138
  6   -188.45716572  -0.0000140015  0.000018  0.000008  0.000019  0.000002
                  ***Gradient check signals convergence***
              ***Rediagonalizing the Fockian in SOSCF/NRSCF***

               *****************************************************
               *                     SUCCESS                       *
               *           SCF CONVERGED AFTER   7 CYCLES          *
               *****************************************************

Total Energy       :         -188.45716573 Eh           -5128.18019 eV
  Last Energy change         ...   -8.5282e-10  Tolerance :   1.0000e-08
  Last MAX-Density change    ...    1.1556e-06  Tolerance :   1.0000e-07
             **** THE GBW FILE WAS UPDATED (co2.gbw) ****
             **** DENSITY FILE WAS UPDATED (co2.scfp.tmp) ****
             **** ENERGY FILE WAS UPDATED (co2.en.tmp) ****
Total SCF time: 0 days 0 hours 0 min 4 sec 

-------------------------   --------------------
FINAL SINGLE POINT ENERGY      -188.457165725526
-------------------------   --------------------



           ************************************************************
           *        Program running with 36 parallel MPI-processes    *
           *              working on a common directory               *
           ************************************************************
------------------------------------------------------------------------------
                         ORCA SCF GRADIENT CALCULATION
------------------------------------------------------------------------------

Gradient of the Kohn-Sham DFT energy:
Kohn-Sham wavefunction type      ... RKS
Hartree-Fock exchange scaling    ...    0.000
Number of operators              ...    1
Number of atoms                  ...    3
Basis set dimensions             ...   42
Integral neglect threshold       ... 2.5e-11
Integral primitive cutoff        ... 2.5e-12

Nuclear repulsion gradient       ... done
One Electron Gradient            ... done
Pre-screening matrix             ... done
RI-J gradient                    ... done
Exchange-correlation gradient    ... done

------------------
CARTESIAN GRADIENT
------------------

   1   C   :    0.000000000   -0.000000002   -0.000000000
   2   O   :   -0.000000031   -0.000000014   -0.008891922
   3   O   :    0.000000031    0.000000016    0.008891922

Difference to translation invariance:
           :    0.0000000000   -0.0000000000    0.0000000000

Norm of the cartesian gradient     ...    0.0125750766
RMS gradient                       ...    0.0041916922
MAX gradient                       ...    0.0088919220

-------
TIMINGS
-------

Total SCF gradient time            ...        0.342 sec

One electron gradient       ....       0.002 sec  (  0.6%)
Prescreening matrices       ....       0.004 sec  (  1.3%)
RI-J Coulomb gradient       ....       0.115 sec  ( 33.6%)
XC gradient                 ....       0.018 sec  (  5.4%)
------------------------------------------------------------------------------
                         ORCA GEOMETRY RELAXATION STEP
------------------------------------------------------------------------------

Reading the OPT-File                    .... done
Getting information on internals        .... done
Copying old internal coords+grads       .... done
Making the new internal coordinates     .... (new redundants).... done
Validating the new internal coordinates .... (new redundants).... done
Calculating the B-matrix                .... done
Calculating the G,G- and P matrices     .... done
Transforming gradient to internals      .... done
Projecting the internal gradient        .... done
Number of atoms                         ....   3
Number of internal coordinates          ....   4
Current Energy                          ....  -188.457165726 Eh
Current gradient norm                   ....     0.012575077 Eh/bohr
Maximum allowed component of the step   ....  0.300
Current trust radius                    ....  0.300
Updating the Hessian (BFGS)             .... done
Forming the augmented Hessian           .... done
Diagonalizing the augmented Hessian     .... done
Last element of RFO vector              ....  0.999946542
Lowest eigenvalues of augmented Hessian:
 -0.000130032  0.577107266  0.577107266  1.216106722
Length of the computed step             ....  0.010340438
The final length of the internal step   ....  0.010340438
Converting the step to cartesian space:
 Initial RMS(Int)=    0.0051702192
Transforming coordinates:
 Iter   0:  RMS(Cart)=    0.0034468128 RMS(Int)=    0.0051702192
 Iter   1:  RMS(Cart)=    0.0000000088 RMS(Int)=    0.0000000394
done
Storing new coordinates                 .... done

                                .--------------------.
          ----------------------|Geometry convergence|-------------------------
          Item                value                   Tolerance       Converged
          ---------------------------------------------------------------------
          Energy change      -0.0039596927            0.0000050000      NO
          RMS gradient        0.0062875383            0.0001000000      NO
          MAX gradient        0.0088919220            0.0003000000      NO
          RMS step            0.0051702192            0.0020000000      NO
          MAX step            0.0073117942            0.0040000000      NO
          ........................................................
          Max(Bonds)      0.0039      Max(Angles)    0.00
          Max(Dihed)        0.00      Max(Improp)    0.00
          ---------------------------------------------------------------------

The optimization has not yet converged - more geometry cycles are needed


    ---------------------------------------------------------------------------
                         Redundant Internal Coordinates
                            (Angstroem and degrees)

        Definition                    Value    dE/dq     Step     New-Value
    ----------------------------------------------------------------------------
     1. B(O   1,C   0)                1.1706 -0.008892  0.0039    1.1744   
     2. B(O   2,C   0)                1.1706 -0.008892  0.0039    1.1744   
     3. L(O   1,C   0,O   2, 2)       180.00 -0.000000    0.00    180.00   
     4. L(O   1,C   0,O   2, 1)       180.00 -0.000000    0.00    180.00   
    ----------------------------------------------------------------------------

         *************************************************************
         *                GEOMETRY OPTIMIZATION CYCLE   3            *
         *************************************************************
---------------------------------
CARTESIAN COORDINATES (ANGSTROEM)
---------------------------------
  C     -0.000000    0.000000    0.000000
  O      0.000004    0.000002    1.174423
  O     -0.000004   -0.000002   -1.174423

----------------------------
CARTESIAN COORDINATES (A.U.)
----------------------------
  NO LB      ZA    FRAG     MASS         X           Y           Z
   0 C     6.0000    0    12.011   -0.000000    0.000000    0.000000
   1 O     8.0000    0    15.999    0.000008    0.000004    2.219338
   2 O     8.0000    0    15.999   -0.000008   -0.000004   -2.219338

--------------------------------
INTERNAL COORDINATES (ANGSTROEM)
--------------------------------
 C      0   0   0     0.000000000000     0.00000000     0.00000000
 O      1   0   0     1.174423298858     0.00000000     0.00000000
 O      1   2   0     1.174423299085   180.00000000     0.00000000

---------------------------
INTERNAL COORDINATES (A.U.)
---------------------------
 C      0   0   0     0.000000000000     0.00000000     0.00000000
 O      1   0   0     2.219338400138     0.00000000     0.00000000
 O      1   2   0     2.219338400567   180.00000000     0.00000000



           ************************************************************
           *        Program running with 36 parallel MPI-processes    *
           *              working on a common directory               *
           ************************************************************
 One Electron integrals                  ... done
 Pre-screening matrix                    ... done


           ************************************************************
           *        Program running with 36 parallel MPI-processes    *
           *              working on a common directory               *
           ************************************************************

Diagonalization of the overlap matrix:
Smallest eigenvalue                        ... 9.199e-03
Time for diagonalization                   ...    0.001 sec
Threshold for overlap eigenvalues          ... 1.000e-08
Number of eigenvalues below threshold      ... 0
Time for construction of square roots      ...    0.010 sec
Total time needed                          ...    0.011 sec

-------------------
DFT GRID GENERATION
-------------------

General Integration Accuracy     IntAcc      ...  5.010
Radial Grid Type                 RadialGrid  ... Gauss-Chebyshev
Angular Grid (max. acc.)         AngularGrid ... Lebedev-434
Angular grid pruning method      GridPruning ... 3 (G Style)
Weight generation scheme         WeightScheme... Becke
Basis function cutoff            BFCut       ...    1.0000e-11
Integration weight cutoff        WCut        ...    1.0000e-14
Grids for H and He will be reduced by one unit

# of grid points (after initial pruning)     ...  32382 (   0.0 sec)
# of grid points (after weights+screening)   ...  31994 (   0.0 sec)
nearest neighbour list constructed           ...    0.0 sec
Grid point re-assignment to atoms done       ...    0.0 sec
Grid point division into batches done        ...    0.3 sec
Reduced shell lists constructed in    0.3 sec

Total number of grid points                  ...    31994
Total number of batches                      ...      501
Average number of points per batch           ...       63
Average number of grid points per atom       ...    10665
Average number of shells per batch           ...     5.33 (29.63%)
Average number of basis functions per batch  ...    11.47 (27.30%)
Average number of large shells per batch     ...     3.93 (73.75%)
Average number of large basis fcns per batch ...     8.60 (75.00%)
Maximum spatial batch extension              ...  27.58, 27.58,  2.20 au
Average spatial batch extension              ...   0.31,  0.30,  0.06 au

Time for grid setup =    0.407 sec

--------------
SCF ITERATIONS
--------------
ITER       Energy         Delta-E        Max-DP      RMS-DP      [F,P]     Damp
               ***  Starting incremental Fock matrix formation  ***
                      *** Initiating the SOSCF procedure ***
                      *** Re-Reading the Fockian *** 
                      *** Removing any level shift *** 
ITER      Energy       Delta-E        Grad      Rot      Max-DP    RMS-DP
  0   -188.45721670 -188.4572166963  0.001430  0.001430  0.001974  0.000222
               *** Restarting incremental Fock matrix formation ***
  1   -188.45723493  -0.0000182317  0.000544  0.000534  0.001479  0.000110
  2   -188.45723534  -0.0000004089  0.000522  0.000385  0.000573  0.000045
  3   -188.45723669  -0.0000013515  0.000260  0.000302  0.000965  0.000046
  4   -188.45723667   0.0000000232  0.000234  0.000118  0.000499  0.000026
  5   -188.45723707  -0.0000004007  0.000009  0.000006  0.000010  0.000001
                  ***Gradient check signals convergence***
              ***Rediagonalizing the Fockian in SOSCF/NRSCF***

               *****************************************************
               *                     SUCCESS                       *
               *           SCF CONVERGED AFTER   6 CYCLES          *
               *****************************************************

Total Energy       :         -188.45723707 Eh           -5128.18213 eV
  Last Energy change         ...   -3.7093e-10  Tolerance :   1.0000e-08
  Last MAX-Density change    ...    1.1456e-06  Tolerance :   1.0000e-07
             **** THE GBW FILE WAS UPDATED (co2.gbw) ****
             **** DENSITY FILE WAS UPDATED (co2.scfp.tmp) ****
             **** ENERGY FILE WAS UPDATED (co2.en.tmp) ****
Total SCF time: 0 days 0 hours 0 min 7 sec 

-------------------------   --------------------
FINAL SINGLE POINT ENERGY      -188.457237066284
-------------------------   --------------------



           ************************************************************
           *        Program running with 36 parallel MPI-processes    *
           *              working on a common directory               *
           ************************************************************
------------------------------------------------------------------------------
                         ORCA SCF GRADIENT CALCULATION
------------------------------------------------------------------------------

Gradient of the Kohn-Sham DFT energy:
Kohn-Sham wavefunction type      ... RKS
Hartree-Fock exchange scaling    ...    0.000
Number of operators              ...    1
Number of atoms                  ...    3
Basis set dimensions             ...   42
Integral neglect threshold       ... 2.5e-11
Integral primitive cutoff        ... 2.5e-12

Nuclear repulsion gradient       ... done
One Electron Gradient            ... done
Pre-screening matrix             ... done
RI-J gradient                    ... done
Exchange-correlation gradient    ... done

------------------
CARTESIAN GRADIENT
------------------

   1   C   :   -0.000000004    0.000000004    0.000000000
   2   O   :   -0.000000000   -0.000000003   -0.000901342
   3   O   :    0.000000005   -0.000000001    0.000901342

Difference to translation invariance:
           :   -0.0000000000   -0.0000000000    0.0000000000

Norm of the cartesian gradient     ...    0.0012746898
RMS gradient                       ...    0.0004248966
MAX gradient                       ...    0.0009013418

-------
TIMINGS
-------

Total SCF gradient time            ...        0.343 sec

One electron gradient       ....       0.002 sec  (  0.6%)
Prescreening matrices       ....       0.004 sec  (  1.3%)
RI-J Coulomb gradient       ....       0.115 sec  ( 33.6%)
XC gradient                 ....       0.016 sec  (  4.7%)
------------------------------------------------------------------------------
                         ORCA GEOMETRY RELAXATION STEP
------------------------------------------------------------------------------

Reading the OPT-File                    .... done
Getting information on internals        .... done
Copying old internal coords+grads       .... done
Making the new internal coordinates     .... (new redundants).... done
Validating the new internal coordinates .... (new redundants).... done
Calculating the B-matrix                .... done
Calculating the G,G- and P matrices     .... done
Transforming gradient to internals      .... done
Projecting the internal gradient        .... done
Number of atoms                         ....   3
Number of internal coordinates          ....   4
Current Energy                          ....  -188.457237066 Eh
Current gradient norm                   ....     0.001274690 Eh/bohr
Maximum allowed component of the step   ....  0.300
Current trust radius                    ....  0.300
Updating the Hessian (BFGS)             .... done
Forming the augmented Hessian           .... done
Diagonalizing the augmented Hessian     .... done
Last element of RFO vector              ....  0.999999320
Lowest eigenvalues of augmented Hessian:
 -0.000001487  0.577107266  0.577107266  1.092835894
Length of the computed step             ....  0.001166405
The final length of the internal step   ....  0.001166405
Converting the step to cartesian space:
 Initial RMS(Int)=    0.0005832027
Transforming coordinates:
 Iter   0:  RMS(Cart)=    0.0003888018 RMS(Int)=    0.0005832027
 Iter   1:  RMS(Cart)=    0.0000000027 RMS(Int)=    0.0000000000
done
Storing new coordinates                 .... done

                                .--------------------.
          ----------------------|Geometry convergence|-------------------------
          Item                value                   Tolerance       Converged
          ---------------------------------------------------------------------
          Energy change      -0.0000713408            0.0000050000      NO
          RMS gradient        0.0006373449            0.0001000000      NO
          MAX gradient        0.0009013418            0.0003000000      NO
          RMS step            0.0005832027            0.0020000000      YES
          MAX step            0.0008247733            0.0040000000      YES
          ........................................................
          Max(Bonds)      0.0004      Max(Angles)    0.00
          Max(Dihed)        0.00      Max(Improp)    0.00
          ---------------------------------------------------------------------

The optimization has not yet converged - more geometry cycles are needed


    ---------------------------------------------------------------------------
                         Redundant Internal Coordinates
                            (Angstroem and degrees)

        Definition                    Value    dE/dq     Step     New-Value
    ----------------------------------------------------------------------------
     1. B(O   1,C   0)                1.1744 -0.000901  0.0004    1.1749   
     2. B(O   2,C   0)                1.1744 -0.000901  0.0004    1.1749   
     3. L(O   1,C   0,O   2, 2)       180.00  0.000000   -0.00    180.00   
     4. L(O   1,C   0,O   2, 1)       180.00  0.000000   -0.00    180.00   
    ----------------------------------------------------------------------------

         *************************************************************
         *                GEOMETRY OPTIMIZATION CYCLE   4            *
         *************************************************************
---------------------------------
CARTESIAN COORDINATES (ANGSTROEM)
---------------------------------
  C     -0.000000    0.000000    0.000000
  O      0.000004    0.000002    1.174860
  O     -0.000004   -0.000002   -1.174860

----------------------------
CARTESIAN COORDINATES (A.U.)
----------------------------
  NO LB      ZA    FRAG     MASS         X           Y           Z
   0 C     6.0000    0    12.011   -0.000000    0.000000    0.000000
   1 O     8.0000    0    15.999    0.000008    0.000004    2.220163
   2 O     8.0000    0    15.999   -0.000008   -0.000004   -2.220163

--------------------------------
INTERNAL COORDINATES (ANGSTROEM)
--------------------------------
 C      0   0   0     0.000000000000     0.00000000     0.00000000
 O      1   0   0     1.174859750065     0.00000000     0.00000000
 O      1   2   0     1.174859750267   179.99999852     0.00000000

---------------------------
INTERNAL COORDINATES (A.U.)
---------------------------
 C      0   0   0     0.000000000000     0.00000000     0.00000000
 O      1   0   0     2.220163173390     0.00000000     0.00000000
 O      1   2   0     2.220163173771   179.99999852     0.00000000



           ************************************************************
           *        Program running with 36 parallel MPI-processes    *
           *              working on a common directory               *
           ************************************************************
 One Electron integrals                  ... done
 Pre-screening matrix                    ... done


           ************************************************************
           *        Program running with 36 parallel MPI-processes    *
           *              working on a common directory               *
           ************************************************************

Diagonalization of the overlap matrix:
Smallest eigenvalue                        ... 9.201e-03
Time for diagonalization                   ...    0.001 sec
Threshold for overlap eigenvalues          ... 1.000e-08
Number of eigenvalues below threshold      ... 0
Time for construction of square roots      ...    0.009 sec
Total time needed                          ...    0.010 sec

-------------------
DFT GRID GENERATION
-------------------

General Integration Accuracy     IntAcc      ...  5.010
Radial Grid Type                 RadialGrid  ... Gauss-Chebyshev
Angular Grid (max. acc.)         AngularGrid ... Lebedev-434
Angular grid pruning method      GridPruning ... 3 (G Style)
Weight generation scheme         WeightScheme... Becke
Basis function cutoff            BFCut       ...    1.0000e-11
Integration weight cutoff        WCut        ...    1.0000e-14
Grids for H and He will be reduced by one unit

# of grid points (after initial pruning)     ...  32382 (   0.0 sec)
# of grid points (after weights+screening)   ...  31994 (   0.0 sec)
nearest neighbour list constructed           ...    0.0 sec
Grid point re-assignment to atoms done       ...    0.0 sec
Grid point division into batches done        ...    0.3 sec
Reduced shell lists constructed in    0.4 sec

Total number of grid points                  ...    31994
Total number of batches                      ...      501
Average number of points per batch           ...       63
Average number of grid points per atom       ...    10665
Average number of shells per batch           ...     5.33 (29.63%)
Average number of basis functions per batch  ...    11.47 (27.30%)
Average number of large shells per batch     ...     3.93 (73.75%)
Average number of large basis fcns per batch ...     8.60 (75.00%)
Maximum spatial batch extension              ...  27.58, 27.58,  2.20 au
Average spatial batch extension              ...   0.31,  0.30,  0.06 au

Time for grid setup =    0.393 sec

--------------
SCF ITERATIONS
--------------
ITER       Energy         Delta-E        Max-DP      RMS-DP      [F,P]     Damp
               ***  Starting incremental Fock matrix formation  ***
                      *** Initiating the SOSCF procedure ***
                      *** Re-Reading the Fockian *** 
                      *** Removing any level shift *** 
ITER      Energy       Delta-E        Grad      Rot      Max-DP    RMS-DP
  0   -188.45723756 -188.4572375634  0.000161  0.000161  0.000222  0.000025
               *** Restarting incremental Fock matrix formation ***
  1   -188.45723779  -0.0000002299  0.000064  0.000061  0.000164  0.000012
  2   -188.45723780  -0.0000000061  0.000060  0.000038  0.000062  0.000005
  3   -188.45723781  -0.0000000150  0.000027  0.000032  0.000105  0.000005
  4   -188.45723781   0.0000000005  0.000026  0.000013  0.000056  0.000003
                  ***Gradient check signals convergence***
              ***Rediagonalizing the Fockian in SOSCF/NRSCF***

               *****************************************************
               *                     SUCCESS                       *
               *           SCF CONVERGED AFTER   5 CYCLES          *
               *****************************************************

Total Energy       :         -188.45723782 Eh           -5128.18215 eV
  Last Energy change         ...   -5.6297e-09  Tolerance :   1.0000e-08
  Last MAX-Density change    ...    1.0629e-06  Tolerance :   1.0000e-07
             **** THE GBW FILE WAS UPDATED (co2.gbw) ****
             **** DENSITY FILE WAS UPDATED (co2.scfp.tmp) ****
             **** ENERGY FILE WAS UPDATED (co2.en.tmp) ****
Total SCF time: 0 days 0 hours 0 min 4 sec 

-------------------------   --------------------
FINAL SINGLE POINT ENERGY      -188.457237819511
-------------------------   --------------------



           ************************************************************
           *        Program running with 36 parallel MPI-processes    *
           *              working on a common directory               *
           ************************************************************
------------------------------------------------------------------------------
                         ORCA SCF GRADIENT CALCULATION
------------------------------------------------------------------------------

Gradient of the Kohn-Sham DFT energy:
Kohn-Sham wavefunction type      ... RKS
Hartree-Fock exchange scaling    ...    0.000
Number of operators              ...    1
Number of atoms                  ...    3
Basis set dimensions             ...   42
Integral neglect threshold       ... 2.5e-11
Integral primitive cutoff        ... 2.5e-12

Nuclear repulsion gradient       ... done
One Electron Gradient            ... done
Pre-screening matrix             ... done
RI-J gradient                    ... done
Exchange-correlation gradient    ... done

------------------
CARTESIAN GRADIENT
------------------

   1   C   :   -0.000000005    0.000000001    0.000000002
   2   O   :    0.000000003   -0.000000000   -0.000011388
   3   O   :    0.000000002   -0.000000001    0.000011387

Difference to translation invariance:
           :   -0.0000000000    0.0000000000   -0.0000000000

Norm of the cartesian gradient     ...    0.0000161045
RMS gradient                       ...    0.0000053682
MAX gradient                       ...    0.0000113884

-------
TIMINGS
-------

Total SCF gradient time            ...        0.342 sec

One electron gradient       ....       0.001 sec  (  0.2%)
Prescreening matrices       ....       0.004 sec  (  1.3%)
RI-J Coulomb gradient       ....       0.114 sec  ( 33.3%)
XC gradient                 ....       0.014 sec  (  4.0%)
------------------------------------------------------------------------------
                         ORCA GEOMETRY RELAXATION STEP
------------------------------------------------------------------------------

Reading the OPT-File                    .... done
Getting information on internals        .... done
Copying old internal coords+grads       .... done
Making the new internal coordinates     .... (new redundants).... done
Validating the new internal coordinates .... (new redundants).... done
Calculating the B-matrix                .... done
Calculating the G,G- and P matrices     .... done
Transforming gradient to internals      .... done
Projecting the internal gradient        .... done
Number of atoms                         ....   3
Number of internal coordinates          ....   4
Current Energy                          ....  -188.457237820 Eh
Current gradient norm                   ....     0.000016104 Eh/bohr
Maximum allowed component of the step   ....  0.300
Current trust radius                    ....  0.300
Updating the Hessian (BFGS)             .... done
Forming the augmented Hessian           .... done
Diagonalizing the augmented Hessian     .... done
Last element of RFO vector              ....  1.000000000
Lowest eigenvalues of augmented Hessian:
 -0.000000000  0.577107265  0.577107266  1.079028947
Length of the computed step             ....  0.000014925
The final length of the internal step   ....  0.000014925
Converting the step to cartesian space:
 Initial RMS(Int)=    0.0000074625
Transforming coordinates:
 Iter   0:  RMS(Cart)=    0.0000049750 RMS(Int)=    0.0000074625
 Iter   1:  RMS(Cart)=    0.0000000006 RMS(Int)=    0.0000000129
done
Storing new coordinates                 .... done

                                .--------------------.
          ----------------------|Geometry convergence|-------------------------
          Item                value                   Tolerance       Converged
          ---------------------------------------------------------------------
          Energy change      -0.0000007532            0.0000050000      YES
          RMS gradient        0.0000080522            0.0001000000      YES
          MAX gradient        0.0000113884            0.0003000000      YES
          RMS step            0.0000074625            0.0020000000      YES
          MAX step            0.0000105541            0.0040000000      YES
          ........................................................
          Max(Bonds)      0.0000      Max(Angles)    0.00
          Max(Dihed)        0.00      Max(Improp)    0.00
          ---------------------------------------------------------------------

                    ***********************HURRAY********************
                    ***        THE OPTIMIZATION HAS CONVERGED     ***
                    *************************************************


    ---------------------------------------------------------------------------
                         Redundant Internal Coordinates

                          --- Optimized Parameters ---  
                            (Angstroem and degrees)

        Definition                    OldVal   dE/dq     Step     FinalVal
    ----------------------------------------------------------------------------
     1. B(O   1,C   0)                1.1749 -0.000011  0.0000    1.1749   
     2. B(O   2,C   0)                1.1749 -0.000011  0.0000    1.1749   
     3. L(O   1,C   0,O   2, 2)       180.00  0.000000   -0.00    180.00   
     4. L(O   1,C   0,O   2, 1)       180.00  0.000000   -0.00    180.00   
    ----------------------------------------------------------------------------
                 *******************************************************
                 *** FINAL ENERGY EVALUATION AT THE STATIONARY POINT ***
                 ***               (AFTER    4 CYCLES)               ***
                 *******************************************************
---------------------------------
CARTESIAN COORDINATES (ANGSTROEM)
---------------------------------
  C     -0.000000    0.000000   -0.000000
  O      0.000004    0.000002    1.174865
  O     -0.000004   -0.000002   -1.174865

----------------------------
CARTESIAN COORDINATES (A.U.)
----------------------------
  NO LB      ZA    FRAG     MASS         X           Y           Z
   0 C     6.0000    0    12.011   -0.000000    0.000000   -0.000000
   1 O     8.0000    0    15.999    0.000008    0.000004    2.220174
   2 O     8.0000    0    15.999   -0.000008   -0.000004   -2.220174

--------------------------------
INTERNAL COORDINATES (ANGSTROEM)
--------------------------------
 C      0   0   0     0.000000000000     0.00000000     0.00000000
 O      1   0   0     1.174865335069     0.00000000     0.00000000
 O      1   2   0     1.174865334673   179.99999809     0.00000000

---------------------------
INTERNAL COORDINATES (A.U.)
---------------------------
 C      0   0   0     0.000000000000     0.00000000     0.00000000
 O      1   0   0     2.220173727517     0.00000000     0.00000000
 O      1   2   0     2.220173726770   179.99999809     0.00000000

---------------------
BASIS SET INFORMATION
---------------------
There are 2 groups of distinct atoms

 Group   1 Type C   : 7s4p1d contracted to 3s2p1d pattern {511/31/1}
 Group   2 Type O   : 7s4p1d contracted to 3s2p1d pattern {511/31/1}

Atom   0C    basis set group =>   1
Atom   1O    basis set group =>   2
Atom   2O    basis set group =>   2
-------------------------------
AUXILIARY BASIS SET INFORMATION
-------------------------------
There are 2 groups of distinct atoms

 Group   1 Type C   : 12s5p4d2f1g contracted to 6s4p3d1f1g pattern {711111/2111/211/2/1}
 Group   2 Type O   : 12s5p4d2f1g contracted to 6s4p3d1f1g pattern {711111/2111/211/2/1}

Atom   0C    basis set group =>   1
Atom   1O    basis set group =>   2
Atom   2O    basis set group =>   2


           ************************************************************
           *        Program running with 36 parallel MPI-processes    *
           *              working on a common directory               *
           ************************************************************
------------------------------------------------------------------------------
                           ORCA GTO INTEGRAL CALCULATION
                           -- RI-GTO INTEGRALS CHOSEN --
------------------------------------------------------------------------------

                         BASIS SET STATISTICS AND STARTUP INFO

Gaussian basis set:
 # of primitive gaussian shells          ...   36
 # of primitive gaussian functions       ...   72
 # of contracted shells                  ...   18
 # of contracted basis functions         ...   42
 Highest angular momentum                ...    2
 Maximum contraction depth               ...    5
Auxiliary gaussian basis set:
 # of primitive gaussian shells          ...   72
 # of primitive gaussian functions       ...  210
 # of contracted shells                  ...   45
 # of contracted aux-basis functions     ...  147
 Highest angular momentum                ...    4
 Maximum contraction depth               ...    7
Ratio of auxiliary to basis functions    ...  3.50
Integral package used                  ... LIBINT
 One Electron integrals                  ... done
 Ordering auxiliary basis shells         ... done
 Integral threshhold             Thresh  ...  2.500e-11
 Primitive cut-off               TCut    ...  2.500e-12
 Pre-screening matrix                    ... done
 Shell pair data                         ... 
 Ordering of the shell pairs             ... done (   0.000 sec) 170 of 171 pairs
 Determination of significant pairs      ... done (   0.000 sec)
 Creation of shell pair data             ... done (   0.000 sec)
 Storage of shell pair data              ... done (   0.012 sec)
 Shell pair data done in (   0.012 sec)
 Computing two index integrals           ... done
 Cholesky decomposition of the V-matrix  ... done


Timings:
 Total evaluation time                   ...   0.311 sec (  0.005 min)
 One electron matrix time                ...   0.025 sec (  0.000 min) =  8.2%
 Schwartz matrix evaluation time         ...   0.243 sec (  0.004 min) = 78.1%
 Two index repulsion integral time       ...   0.003 sec (  0.000 min) =  0.9%
 Cholesky decomposition of V             ...   0.005 sec (  0.000 min) =  1.7%
 Three index repulsion integral time     ...   0.000 sec (  0.000 min) =  0.0%



           ************************************************************
           *        Program running with 36 parallel MPI-processes    *
           *              working on a common directory               *
           ************************************************************
-------------------------------------------------------------------------------
                                 ORCA SCF
-------------------------------------------------------------------------------

------------
SCF SETTINGS
------------
Hamiltonian:
 Density Functional     Method          .... DFT(GTOs)
 Exchange Functional    Exchange        .... B88
   X-Alpha parameter    XAlpha          ....  0.666667
   Becke's b parameter  XBeta           ....  0.004200
 Correlation Functional Correlation     .... P86
 LDA part of GGA corr.  LDAOpt          .... PW91-LDA
 Gradients option       PostSCFGGA      .... off
   Density functional embedding theory  .... OFF
 RI-approximation to the Coulomb term is turned on
   Number of auxiliary basis functions  .... 147


General Settings:
 Integral files         IntName         .... co2
 Hartree-Fock type      HFTyp           .... RHF
 Total Charge           Charge          ....    0
 Multiplicity           Mult            ....    1
 Number of Electrons    NEL             ....   22
 Basis Dimension        Dim             ....   42
 Nuclear Repulsion      ENuc            ....     57.6531459836 Eh

Convergence Acceleration:
 DIIS                   CNVDIIS         .... on
   Start iteration      DIISMaxIt       ....    12
   Startup error        DIISStart       ....  0.200000
   # of expansion vecs  DIISMaxEq       ....     5
   Bias factor          DIISBfac        ....   1.050
   Max. coefficient     DIISMaxC        ....  10.000
 Newton-Raphson         CNVNR           .... off
 SOSCF                  CNVSOSCF        .... on
   Start iteration      SOSCFMaxIt      ....   150
   Startup grad/error   SOSCFStart      ....  0.003300
 Level Shifting         CNVShift        .... on
   Level shift para.    LevelShift      ....    0.2500
   Turn off err/grad.   ShiftErr        ....    0.0010
 Zerner damping         CNVZerner       .... off
 Static damping         CNVDamp         .... on
   Fraction old density DampFac         ....    0.7000
   Max. Damping (<1)    DampMax         ....    0.9800
   Min. Damping (>=0)   DampMin         ....    0.0000
   Turn off err/grad.   DampErr         ....    0.1000
 Fernandez-Rico         CNVRico         .... off

SCF Procedure:
 Maximum # iterations   MaxIter         ....   125
 SCF integral mode      SCFMode         .... Direct
   Integral package                     .... LIBINT
 Reset frequency        DirectResetFreq ....    20
 Integral Threshold     Thresh          ....  2.500e-11 Eh
 Primitive CutOff       TCut            ....  2.500e-12 Eh

Convergence Tolerance:
 Convergence Check Mode ConvCheckMode   .... Total+1el-Energy
 Convergence forced     ConvForced      .... 0
 Energy Change          TolE            ....  1.000e-08 Eh
 1-El. energy change                    ....  1.000e-05 Eh
 Orbital Gradient       TolG            ....  1.000e-05
 Orbital Rotation angle TolX            ....  1.000e-05
 DIIS Error             TolErr          ....  5.000e-07


Diagonalization of the overlap matrix:
Smallest eigenvalue                        ... 9.201e-03
Time for diagonalization                   ...    0.001 sec
Threshold for overlap eigenvalues          ... 1.000e-08
Number of eigenvalues below threshold      ... 0
Time for construction of square roots      ...    0.009 sec
Total time needed                          ...    0.010 sec

---------------------
INITIAL GUESS: MOREAD
---------------------
Guess MOs are being read from file: co2.gbw
Input Geometry matches current geometry (good)
Input basis set matches current basis set (good)
MOs were renormalized
MOs were reorthogonalized (Cholesky)
                      ------------------
                      INITIAL GUESS DONE (   0.0 sec)
                      ------------------
-------------------
DFT GRID GENERATION
-------------------

General Integration Accuracy     IntAcc      ...  5.010
Radial Grid Type                 RadialGrid  ... Gauss-Chebyshev
Angular Grid (max. acc.)         AngularGrid ... Lebedev-434
Angular grid pruning method      GridPruning ... 3 (G Style)
Weight generation scheme         WeightScheme... Becke
Basis function cutoff            BFCut       ...    1.0000e-11
Integration weight cutoff        WCut        ...    1.0000e-14
Grids for H and He will be reduced by one unit

# of grid points (after initial pruning)     ...  32382 (   0.0 sec)
[...]
                  ***Gradient check signals convergence***
              ***Rediagonalizing the Fockian in SOSCF/NRSCF***

               *****************************************************
               *                     SUCCESS                       *
               *           SCF CONVERGED AFTER   1 CYCLES          *
               *****************************************************


----------------
TOTAL SCF ENERGY
----------------

Total Energy       :         -188.45723782 Eh           -5128.18215 eV

Components:
Nuclear Repulsion  :           57.65314598 Eh            1568.82186 eV
Electronic Energy  :         -246.11038380 Eh           -6697.00401 eV
One Electron Energy:         -371.26954636 Eh          -10102.75797 eV
Two Electron Energy:          125.15916256 Eh            3405.75396 eV

Virial components:
Potential Energy   :         -375.39298130 Eh          -10214.96234 eV
Kinetic Energy     :          186.93574348 Eh            5086.78019 eV
Virial Ratio       :            2.00813913


DFT components:
N(Alpha)           :       10.999997795624 electrons
N(Beta)            :       10.999997795624 electrons
N(Total)           :       21.999995591249 electrons
E(X)               :      -21.704947450211 Eh       
E(C)               :       -0.821053111334 Eh       
E(XC)              :      -22.526000561545 Eh       
DFET-embed. en.    :        0.000000000000 Eh       

---------------
SCF CONVERGENCE
---------------

  Last Energy change         ...   -5.1074e-11  Tolerance :   1.0000e-08
  Last MAX-Density change    ...    4.5333e-06  Tolerance :   1.0000e-07
  Last RMS-Density change    ...    3.4079e-07  Tolerance :   5.0000e-09
  Last Orbital Gradient      ...    1.8035e-06  Tolerance :   1.0000e-05
  Last Orbital Rotation      ...    2.7245e-06  Tolerance :   1.0000e-05

             **** THE GBW FILE WAS UPDATED (co2.gbw) ****
             **** DENSITY FILE WAS UPDATED (co2.scfp.tmp) ****
             **** ENERGY FILE WAS UPDATED (co2.en.tmp) ****
----------------
ORBITAL ENERGIES
----------------

  NO   OCC          E(Eh)            E(eV) 
   0   2.0000     -18.859423      -513.1910 
   1   2.0000     -18.859357      -513.1892 
   2   2.0000     -10.090945      -274.5886 
   3   2.0000      -1.052474       -28.6393 
   4   2.0000      -1.016347       -27.6562 
   5   2.0000      -0.493732       -13.4351 
   6   2.0000      -0.460583       -12.5331 
   7   2.0000      -0.460583       -12.5331 
   8   2.0000      -0.456210       -12.4141 
   9   2.0000      -0.327155        -8.9023 
  10   2.0000      -0.327155        -8.9023 
  11   0.0000      -0.012797        -0.3482 
  12   0.0000      -0.012797        -0.3482 
  13   0.0000       0.026744         0.7278 
  14   0.0000       0.323710         8.8086 
  15   0.0000       0.392960        10.6930 
  16   0.0000       0.392960        10.6930 
  17   0.0000       0.406936        11.0733 
  18   0.0000       0.693118        18.8607 
  19   0.0000       0.760047        20.6819 
  20   0.0000       0.841763        22.9055 
  21   0.0000       0.841763        22.9055 
  22   0.0000       0.982182        26.7265 
  23   0.0000       1.030608        28.0443 
  24   0.0000       1.030608        28.0443 
  25   0.0000       1.178784        32.0763 
  26   0.0000       1.463930        39.8356 
  27   0.0000       1.463930        39.8356 
  28   0.0000       1.492392        40.6100 
  29   0.0000       1.492392        40.6100 
  30   0.0000       1.510165        41.0937 
  31   0.0000       2.457342        66.8677 
  32   0.0000       2.457342        66.8677 
  33   0.0000       2.566928        69.8497 
  34   0.0000       2.566928        69.8497 
  35   0.0000       2.655822        72.2686 
  36   0.0000       2.655822        72.2686 
  37   0.0000       2.686677        73.1082 
  38   0.0000       3.406604        92.6984 
  39   0.0000       3.409227        92.7698 
  40   0.0000       3.409227        92.7698 
  41   0.0000       3.724472       101.3480 

                    ********************************
                    * MULLIKEN POPULATION ANALYSIS *
                    ********************************

-----------------------
MULLIKEN ATOMIC CHARGES
-----------------------
   0 C :    0.226710
   1 O :   -0.113355
   2 O :   -0.113355
Sum of atomic charges:   -0.0000000

--------------------------------
MULLIKEN REDUCED ORBITAL CHARGES
--------------------------------
  0 C s       :     2.973336  s :     2.973336
      pz      :     0.958733  p :     2.664827
      px      :     0.853047
      py      :     0.853047
      dz2     :     0.028638  d :     0.135128
      dxz     :     0.053245
      dyz     :     0.053245
      dx2y2   :     0.000000
      dxy     :     0.000000
  1 O s       :     3.735941  s :     3.735941
      pz      :     1.274670  p :     4.355615
      px      :     1.540473
      py      :     1.540473
      dz2     :     0.009036  d :     0.021799
      dxz     :     0.006382
      dyz     :     0.006382
      dx2y2   :     0.000000
      dxy     :     0.000000
  2 O s       :     3.735941  s :     3.735941
      pz      :     1.274670  p :     4.355615
      px      :     1.540473
      py      :     1.540473
      dz2     :     0.009036  d :     0.021799
      dxz     :     0.006382
      dyz     :     0.006382
      dx2y2   :     0.000000
      dxy     :     0.000000


                     *******************************
                     * LOEWDIN POPULATION ANALYSIS *
                     *******************************

----------------------
LOEWDIN ATOMIC CHARGES
----------------------
   0 C :    0.105162
   1 O :   -0.052581
   2 O :   -0.052581

-------------------------------
LOEWDIN REDUCED ORBITAL CHARGES
-------------------------------
  0 C s       :     2.818340  s :     2.818340
      pz      :     1.086308  p :     2.775872
      px      :     0.844782
      py      :     0.844782
      dz2     :     0.084541  d :     0.300625
      dxz     :     0.108042
      dyz     :     0.108042
      dx2y2   :     0.000000
      dxy     :     0.000000
  1 O s       :     3.544058  s :     3.544058
      pz      :     1.440997  p :     4.472006
      px      :     1.515505
      py      :     1.515505
      dz2     :     0.020351  d :     0.036517
      dxz     :     0.008083
      dyz     :     0.008083
      dx2y2   :     0.000000
      dxy     :     0.000000
  2 O s       :     3.544058  s :     3.544058
      pz      :     1.440997  p :     4.472006
      px      :     1.515505
      py      :     1.515505
      dz2     :     0.020351  d :     0.036517
      dxz     :     0.008083
      dyz     :     0.008083
      dx2y2   :     0.000000
      dxy     :     0.000000


                      *****************************
                      * MAYER POPULATION ANALYSIS *
                      *****************************

  NA   - Mulliken gross atomic population
  ZA   - Total nuclear charge
  QA   - Mulliken gross atomic charge
  VA   - Mayer's total valence
  BVA  - Mayer's bonded valence
  FA   - Mayer's free valence

  ATOM       NA         ZA         QA         VA         BVA        FA
  0 C      5.7733     6.0000     0.2267     4.3282     4.3282    -0.0000
  1 O      8.1134     8.0000    -0.1134     2.4635     2.4635    -0.0000
  2 O      8.1134     8.0000    -0.1134     2.4635     2.4635    -0.0000

  Mayer bond orders larger than 0.1
B(  0-C ,  1-O ) :   2.1641 B(  0-C ,  2-O ) :   2.1641 B(  1-O ,  2-O ) :   0.2994 


-------
TIMINGS
-------

Total SCF time: 0 days 0 hours 0 min 4 sec 

Total time                  ....       4.819 sec
Sum of individual times     ....       3.858 sec  ( 80.1%)

Fock matrix formation       ....       3.363 sec  ( 69.8%)
  Split-RI-J                ....       0.352 sec  ( 10.5% of F)
  XC integration            ....       2.908 sec  ( 86.5% of F)
    Basis function eval.    ....       0.002 sec  (  0.1% of XC)
    Density eval.           ....       0.021 sec  (  0.7% of XC)
    XC-Functional eval.     ....       0.003 sec  (  0.1% of XC)
    XC-Potential eval.      ....       0.001 sec  (  0.0% of XC)
Diagonalization             ....       0.010 sec  (  0.2%)
Density matrix formation    ....       0.003 sec  (  0.1%)
Population analysis         ....       0.040 sec  (  0.8%)
Initial guess               ....       0.005 sec  (  0.1%)
Orbital Transformation      ....       0.000 sec  (  0.0%)
Orbital Orthonormalization  ....       0.000 sec  (  0.0%)
DIIS solution               ....       0.000 sec  (  0.0%)
SOSCF solution              ....       0.009 sec  (  0.2%)
Grid generation             ....       0.429 sec  (  8.9%)

-------------------------   --------------------
FINAL SINGLE POINT ENERGY      -188.457237820027
-------------------------   --------------------

                                *** OPTIMIZATION RUN DONE ***

                            ***************************************
                            *     ORCA property calculations      *
                            ***************************************

                                    ---------------------
                                    Active property flags
                                    ---------------------
   (+) Dipole Moment


------------------------------------------------------------------------------
                       ORCA ELECTRIC PROPERTIES CALCULATION
------------------------------------------------------------------------------

Dipole Moment Calculation                       ... on
Quadrupole Moment Calculation                   ... off
Polarizability Calculation                      ... off
GBWName                                         ... co2.gbw
Electron density file                           ... co2.scfp.tmp
The origin for moment calculation is the CENTER OF MASS  = ( 0.000000, -0.000000  0.000000)

-------------
DIPOLE MOMENT
-------------
                                X             Y             Z
Electronic contribution:     -0.00000       0.00000      -0.00000
Nuclear contribution   :      0.00000      -0.00000       0.00000
                        -----------------------------------------
Total Dipole Moment    :     -0.00000       0.00000      -0.00000
                        -----------------------------------------
Magnitude (a.u.)       :      0.00000
Magnitude (Debye)      :      0.00000



--------------------
Rotational spectrum 
--------------------
 
Rotational constants in cm-1:     0.000000     0.381679     0.381679 
Rotational constants in MHz :     0.000000 11442.438586 11442.438586 

 Dipole components along the rotational axes: 
x,y,z [a.u.] :    -0.000000     0.000000     0.000000 
x,y,z [Debye]:    -0.000000     0.000000     0.000000 

 

----------------------------------------------------------------------------
                           ORCA NUMERICAL FREQUENCIES
                              (36-process run)
----------------------------------------------------------------------------

Number of atoms                ... 3
Central differences            ... used
Number of displacements        ... 18
Numerical increment            ... 0.005 bohr
IR-spectrum generation         ... on
Raman-spectrum generation      ... off
Surface Crossing Hessian       ... off

 WARNING: There are more processes than displacements to do
  ====> : Reducing number of processes to   9

The output will be reduced. Please look at the following files:
SCF program output             ... >co2.lastscf
Integral program output        ... >co2.lastint
Gradient program output        ... >co2.lastgrad
Dipole moment program output   ... >co2.lastmom
AutoCI program output          ... >co2.lastautoci


         <<< Energy and Gradient at the input geometry >>>

        <<< Energy and Gradient at displaced geometries >>>
             <<<Displacing   1/coordinate 3 (+)>>>
             <<<Displacing   3/coordinate 3 (+)>>>
             <<<Displacing   1/coordinate 1 (+)>>>
             <<<Displacing   3/coordinate 1 (+)>>>
             <<<Displacing   3/coordinate 2 (+)>>>
             <<<Displacing   2/coordinate 2 (+)>>>
             <<<Displacing   2/coordinate 1 (+)>>>
             <<<Displacing   2/coordinate 3 (+)>>>
             <<<Displacing   1/coordinate 2 (+)>>>
             <<<Displacing   2/coordinate 2 (-)>>>
             <<<Displacing   3/coordinate 2 (-)>>>
             <<<Displacing   2/coordinate 1 (-)>>>
             <<<Displacing   3/coordinate 1 (-)>>>
             <<<Displacing   1/coordinate 3 (-)>>>
             <<<Displacing   3/coordinate 3 (-)>>>
             <<<Displacing   1/coordinate 1 (-)>>>
             <<<Displacing   1/coordinate 2 (-)>>>
             <<<Displacing   2/coordinate 3 (-)>>>

-----------------------
VIBRATIONAL FREQUENCIES
-----------------------

Scaling factor for frequencies =  1.000000000 (already applied!)

   0:         0.00 cm**-1
   1:         0.00 cm**-1
   2:         0.00 cm**-1
   3:         0.00 cm**-1
   4:         0.00 cm**-1
   5:         0.00 cm**-1
   6:       621.37 cm**-1
   7:      1332.24 cm**-1
   8:      2407.24 cm**-1


------------
NORMAL MODES
------------

These modes are the cartesian displacements weighted by the diagonal matrix
M(i,i)=1/sqrt(m[i]) where m[i] is the mass of the displaced atom
Thus, these vectors are normalized but *not* orthogonal

                  0          1          2          3          4          5    
      0       0.000000   0.000000   0.000000   0.000000   0.000000   0.000000
      1       0.000000   0.000000   0.000000   0.000000   0.000000   0.000000
      2       0.000000   0.000000   0.000000   0.000000   0.000000   0.000000
      3       0.000000   0.000000   0.000000   0.000000   0.000000   0.000000
      4       0.000000   0.000000   0.000000   0.000000   0.000000   0.000000
      5       0.000000   0.000000   0.000000   0.000000   0.000000   0.000000
      6       0.000000   0.000000   0.000000   0.000000   0.000000   0.000000
      7       0.000000   0.000000   0.000000   0.000000   0.000000   0.000000
      8       0.000000   0.000000   0.000000   0.000000   0.000000   0.000000
                   6          7          8    
      0       0.843873   0.000000   0.000002
      1      -0.260827  -0.000000   0.000002
      2      -0.000002   0.000000   0.883262
      3      -0.316762  -0.000002  -0.000001
      4       0.097906  -0.000001  -0.000001
      5       0.000001  -0.707107  -0.331548
      6      -0.316762   0.000002  -0.000001
      7       0.097906   0.000001  -0.000001
      8       0.000001   0.707107  -0.331548


-----------
IR SPECTRUM  
-----------

 Mode    freq (cm**-1)   T**2         TX         TY         TZ
-------------------------------------------------------------------
   6:       621.37   24.902837  (  4.767732  -1.473623  -0.000462)
   7:      1332.24    0.000000  ( -0.000000   0.000000   0.000001)
   8:      2407.24  494.255136  (  0.000070   0.000039  22.231850)

The first frequency considered to be a vibration is 6
The total number of vibrations considered is 3


--------------------------
THERMOCHEMISTRY AT 298.15K
--------------------------

Temperature         ... 298.15 K
Pressure            ... 1.00 atm
Total Mass          ... 44.01 AMU
The molecule is recognized as being linear

Throughout the following assumptions are being made:
  (1) The electronic state is orbitally nondegenerate
  (2) There are no thermally accessible electronically excited states
  (3) Hindered rotations indicated by low frequency modes are not
      treated as such but are treated as vibrations and this may
      cause some error
  (4) All equations used are the standard statistical mechanics
      equations for an ideal gas
  (5) All vibrations are strictly harmonic

freq.     621.37  E(vib)   ...       0.09 
freq.    1332.24  E(vib)   ...       0.01 
freq.    2407.24  E(vib)   ...       0.00 

------------
INNER ENERGY
------------

The inner energy is: U= E(el) + E(ZPE) + E(vib) + E(rot) + E(trans)
    E(el)   - is the total energy from the electronic structure calculation
              = E(kin-el) + E(nuc-el) + E(el-el) + E(nuc-nuc)
    E(ZPE)  - the the zero temperature vibrational energy from the frequency calculation
    E(vib)  - the the finite temperature correction to E(ZPE) due to population
              of excited vibrational states
    E(rot)  - is the rotational thermal energy
    E(trans)- is the translational thermal energy

Summary of contributions to the inner energy U:
Electronic energy                ...   -188.45723782 Eh
Zero point energy                ...      0.00993476 Eh       6.23 kcal/mol
Thermal vibrational correction   ...      0.00015849 Eh       0.10 kcal/mol
Thermal rotational correction    ...      0.00094418 Eh       0.59 kcal/mol
Thermal translational correction ...      0.00141627 Eh       0.89 kcal/mol
-----------------------------------------------------------------------
Total thermal energy                   -188.44478411 Eh


Summary of corrections to the electronic energy:
(perhaps to be used in another calculation)
Total thermal correction                  0.00251895 Eh       1.58 kcal/mol
Non-thermal (ZPE) correction              0.00993476 Eh       6.23 kcal/mol
-----------------------------------------------------------------------
Total correction                          0.01245371 Eh       7.81 kcal/mol


--------
ENTHALPY
--------

The enthalpy is H = U + kB*T
                kB is Boltzmann's constant
Total free energy                 ...   -188.44478411 Eh 
Thermal Enthalpy correction       ...      0.00094421 Eh       0.59 kcal/mol
-----------------------------------------------------------------------
Total Enthalpy                    ...   -188.44383990 Eh


Note: Rotational entropy computed according to Herzberg 
Infrared and Raman Spectra, Chapter V,1, Van Nostrand Reinhold, 1945 
Point Group:  Dinfh, Symmetry Number:   2  
Rotational constants in cm-1:     0.000000     0.381679     0.381679 

Vibrational entropy computed according to the QRRHO of S. Grimme
Chem.Eur.J. 2012 18 9955


-------
ENTROPY
-------

The entropy contributions are T*S = T*(S(el)+S(vib)+S(rot)+S(trans))
     S(el)   - electronic entropy
     S(vib)  - vibrational entropy
     S(rot)  - rotational entropy
     S(trans)- translational entropy
The entropies will be listed as mutliplied by the temperature to get
units of energy

Electronic entropy                ...      0.00000000 Eh      0.00 kcal/mol
Vibrational entropy               ...      0.00020852 Eh      0.13 kcal/mol
Rotational entropy                ...      0.00623522 Eh      3.91 kcal/mol
Translational entropy             ...      0.01770880 Eh     11.11 kcal/mol
-----------------------------------------------------------------------
Final entropy term                ...      0.02415254 Eh     15.16 kcal/mol


-------------------
GIBBS FREE ENTHALPY
-------------------

The Gibbs free enthalpy is G = H - T*S

Total enthalpy                    ...   -188.44383990 Eh 
Total entropy correction          ...     -0.02415254 Eh    -15.16 kcal/mol
-----------------------------------------------------------------------
Final Gibbs free enthalpy         ...   -188.46799244 Eh

For completeness - the Gibbs free enthalpy minus the electronic energy
G-E(el)                           ...     -0.01075462 Eh     -6.75 kcal/mol


Total Time for Numerical Frequencies  :        17.767 sec

Timings for individual modules:

Sum of individual times         ...       81.547 sec (=   1.359 min)
GTO integral calculation        ...       10.401 sec (=   0.173 min)  12.8 %
SCF iterations                  ...       62.362 sec (=   1.039 min)  76.5 %
SCF Gradient evaluation         ...        8.589 sec (=   0.143 min)  10.5 %
Geometry relaxation             ...        0.196 sec (=   0.003 min)   0.2 %
                             ****ORCA TERMINATED NORMALLY****
TOTAL RUN TIME: 0 days 0 hours 1 minutes 36 seconds 595 msec
