 Entering Gaussian System, Link 0=g16
 Input=ethene.com
 Output=ethene.log
 Initial command:
 /hpc/applications/gaussian/g16b/g16/l1.exe "/scratch/users/yunwent/periodic-more/graphite/tpss/Gau-6788.inp" -scrdir="/scratch/users/yunwent/periodic-more/graphite/tpss/"
 Entering Link 1 = /hpc/applications/gaussian/g16b/g16/l1.exe PID=      6789.
  
 Copyright (c) 1988-2017, Gaussian, Inc.  All Rights Reserved.
  
 This is part of the Gaussian(R) 16 program.  It is based on
 the Gaussian(R) 09 system (copyright 2009, Gaussian, Inc.),
 the Gaussian(R) 03 system (copyright 2003, Gaussian, Inc.),
 the Gaussian(R) 98 system (copyright 1998, Gaussian, Inc.),
 the Gaussian(R) 94 system (copyright 1995, Gaussian, Inc.),
 the Gaussian 92(TM) system (copyright 1992, Gaussian, Inc.),
 the Gaussian 90(TM) system (copyright 1990, Gaussian, Inc.),
 the Gaussian 88(TM) system (copyright 1988, Gaussian, Inc.),
 the Gaussian 86(TM) system (copyright 1986, Carnegie Mellon
 University), and the Gaussian 82(TM) system (copyright 1983,
 Carnegie Mellon University). Gaussian is a federally registered
 trademark of Gaussian, Inc.
  
 This software contains proprietary and confidential information,
 including trade secrets, belonging to Gaussian, Inc.
  
 This software is provided under written license and may be
 used, copied, transmitted, or stored only in accord with that
 written license.
  
 The following legend is applicable only to US Government
 contracts under FAR:
  
                    RESTRICTED RIGHTS LEGEND
  
 Use, reproduction and disclosure by the US Government is
 subject to restrictions as set forth in subparagraphs (a)
 and (c) of the Commercial Computer Software - Restricted
 Rights clause in FAR 52.227-19.
  
 Gaussian, Inc.
 340 Quinnipiac St., Bldg. 40, Wallingford CT 06492
  
  
 ---------------------------------------------------------------
 Warning -- This program may not be used in any manner that
 competes with the business of Gaussian, Inc. or will provide
 assistance to any competitor of Gaussian, Inc.  The licensee
 of this program is prohibited from giving any competitor of
 Gaussian, Inc. access to this program.  By using this program,
 the user acknowledges that Gaussian, Inc. is engaged in the
 business of creating and licensing software in the field of
 computational chemistry and represents and warrants to the
 licensee that it is not a competitor of Gaussian, Inc. and that
 it will not use this program in any manner prohibited above.
 ---------------------------------------------------------------
  

 Cite this work as:
 Gaussian 16, Revision B.01,
 M. J. Frisch, G. W. Trucks, H. B. Schlegel, G. E. Scuseria, 
 M. A. Robb, J. R. Cheeseman, G. Scalmani, V. Barone, 
 G. A. Petersson, H. Nakatsuji, X. Li, M. Caricato, A. V. Marenich, 
 J. Bloino, B. G. Janesko, R. Gomperts, B. Mennucci, H. P. Hratchian, 
 J. V. Ortiz, A. F. Izmaylov, J. L. Sonnenberg, D. Williams-Young, 
 F. Ding, F. Lipparini, F. Egidi, J. Goings, B. Peng, A. Petrone, 
 T. Henderson, D. Ranasinghe, V. G. Zakrzewski, J. Gao, N. Rega, 
 G. Zheng, W. Liang, M. Hada, M. Ehara, K. Toyota, R. Fukuda, 
 J. Hasegawa, M. Ishida, T. Nakajima, Y. Honda, O. Kitao, H. Nakai, 
 T. Vreven, K. Throssell, J. A. Montgomery, Jr., J. E. Peralta, 
 F. Ogliaro, M. J. Bearpark, J. J. Heyd, E. N. Brothers, K. N. Kudin, 
 V. N. Staroverov, T. A. Keith, R. Kobayashi, J. Normand, 
 K. Raghavachari, A. P. Rendell, J. C. Burant, S. S. Iyengar, 
 J. Tomasi, M. Cossi, J. M. Millam, M. Klene, C. Adamo, R. Cammi, 
 J. W. Ochterski, R. L. Martin, K. Morokuma, O. Farkas, 
 J. B. Foresman, and D. J. Fox, Gaussian, Inc., Wallingford CT, 2016.
 
 ******************************************
 Gaussian 16:  ES64L-G16RevB.01 20-Dec-2017
                 9-Feb-2019 
 ******************************************
 %chk=ethene.chk
 %nproc=36
 Will use up to   36 processors via shared memory.
 %mem=80GB
 ----------------------------------------------------------------------
 #P TPSSTPSS 6-31G(d,p) opt=tight freq scf=tight int(ultrafine) geom=co
 nnectivity
 ----------------------------------------------------------------------
 1/7=10,18=20,19=15,26=4,38=1,57=2/1,3;
 2/9=110,12=2,17=6,18=5,40=1/2;
 3/5=1,6=6,7=101,11=2,25=1,30=1,71=1,74=2523,75=-5/1,2,3;
 4//1;
 5/5=2,32=2,38=5/2;
 6/7=2,8=2,9=2,10=2,28=1/1;
 7//1,2,3,16;
 1/7=10,18=20,19=15,26=4/3(2);
 2/9=110/2;
 99//99;
 2/9=110/2;
 3/5=1,6=6,7=101,11=2,25=1,30=1,71=1,74=2523,75=-5/1,2,3;
 4/5=5,16=3,69=1/1;
 5/5=2,32=2,38=5/2;
 7//1,2,3,16;
 1/7=10,18=20,19=15,26=4/3(-5);
 2/9=110/2;
 6/7=2,8=2,9=2,10=2,19=2,28=1/1;
 99/9=1/99;
 Leave Link    1 at Sat Feb  9 14:30:34 2019, MaxMem= 10737418240 cpu:               4.9 elap:               0.1
 (Enter /hpc/applications/gaussian/g16b/g16/l101.exe)
 -------------------
 Title Card Required
 -------------------
 Symbolic Z-matrix:
 Charge =  0 Multiplicity = 1
 C                    -1.10811  -1.10811   0. 
 H                    -0.57494  -2.03581   0. 
 H                    -2.17811  -1.10811   0. 
 C                    -0.43283   0.06687   0. 
 H                    -0.966     0.99457   0. 
 H                     0.63717   0.06687   0. 
 
 ITRead=  0  0  0  0  0  0
 MicOpt= -1 -1 -1 -1 -1 -1
 NAtoms=      6 NQM=        6 NQMF=       0 NMMI=      0 NMMIF=      0
                NMic=       0 NMicF=      0.
                    Isotopes and Nuclear Properties:
 (Nuclear quadrupole moments (NQMom) in fm**2, nuclear magnetic moments (NMagM)
  in nuclear magnetons)

  Atom         1           2           3           4           5           6
 IAtWgt=          12           1           1          12           1           1
 AtmWgt=  12.0000000   1.0078250   1.0078250  12.0000000   1.0078250   1.0078250
 NucSpn=           0           1           1           0           1           1
 AtZEff=  -0.0000000  -0.0000000  -0.0000000  -0.0000000  -0.0000000  -0.0000000
 NQMom=    0.0000000   0.0000000   0.0000000   0.0000000   0.0000000   0.0000000
 NMagM=    0.0000000   2.7928460   2.7928460   0.0000000   2.7928460   2.7928460
 AtZNuc=   6.0000000   1.0000000   1.0000000   6.0000000   1.0000000   1.0000000
 Leave Link  101 at Sat Feb  9 14:30:35 2019, MaxMem= 10737418240 cpu:              13.4 elap:               0.4
 (Enter /hpc/applications/gaussian/g16b/g16/l103.exe)

 GradGradGradGradGradGradGradGradGradGradGradGradGradGradGradGradGradGrad
 Berny optimization.
 Initialization pass.
                           ----------------------------
                           !    Initial Parameters    !
                           ! (Angstroms and Degrees)  !
 --------------------------                            --------------------------
 ! Name  Definition              Value          Derivative Info.                !
 --------------------------------------------------------------------------------
 ! R1    R(1,2)                  1.07           estimate D2E/DX2                !
 ! R2    R(1,3)                  1.07           estimate D2E/DX2                !
 ! R3    R(1,4)                  1.3552         estimate D2E/DX2                !
 ! R4    R(4,5)                  1.07           estimate D2E/DX2                !
 ! R5    R(4,6)                  1.07           estimate D2E/DX2                !
 ! A1    A(2,1,3)              119.8865         estimate D2E/DX2                !
 ! A2    A(2,1,4)              120.2269         estimate D2E/DX2                !
 ! A3    A(3,1,4)              119.8865         estimate D2E/DX2                !
 ! A4    A(1,4,5)              120.2269         estimate D2E/DX2                !
 ! A5    A(1,4,6)              119.8865         estimate D2E/DX2                !
 ! A6    A(5,4,6)              119.8865         estimate D2E/DX2                !
 ! D1    D(2,1,4,5)            180.0            estimate D2E/DX2                !
 ! D2    D(2,1,4,6)              0.0            estimate D2E/DX2                !
 ! D3    D(3,1,4,5)              0.0            estimate D2E/DX2                !
 ! D4    D(3,1,4,6)            180.0            estimate D2E/DX2                !
 --------------------------------------------------------------------------------
 Trust Radius=3.00D-01 FncErr=1.00D-07 GrdErr=1.00D-06 EigMax=2.50D+02 EigMin=1.00D-04
 Number of steps in this run=     25 maximum allowed number of steps=    100.
 GradGradGradGradGradGradGradGradGradGradGradGradGradGradGradGradGradGrad

 Leave Link  103 at Sat Feb  9 14:30:35 2019, MaxMem= 10737418240 cpu:               0.4 elap:               0.0
 (Enter /hpc/applications/gaussian/g16b/g16/l202.exe)
                          Input orientation:                          
 ---------------------------------------------------------------------
 Center     Atomic      Atomic             Coordinates (Angstroms)
 Number     Number       Type             X           Y           Z
 ---------------------------------------------------------------------
      1          6           0       -1.108108   -1.108108    0.000000
      2          1           0       -0.574944   -2.035813    0.000000
      3          1           0       -2.178108   -1.108108    0.000000
      4          6           0       -0.432834    0.066869    0.000000
      5          1           0       -0.965998    0.994574    0.000000
      6          1           0        0.637166    0.066869    0.000000
 ---------------------------------------------------------------------
                    Distance matrix (angstroms):
                    1          2          3          4          5
     1  C    0.000000
     2  H    1.070000   0.000000
     3  H    1.070000   1.852234   0.000000
     4  C    1.355200   2.107479   2.103938   0.000000
     5  H    2.107479   3.055514   2.427032   1.070000   0.000000
     6  H    2.103938   2.427032   3.050630   1.070000   1.852234
                    6
     6  H    0.000000
 Stoichiometry    C2H4
 Framework group  C2H[SGH(C2H4)]
 Deg. of freedom     5
 Full point group                 C2H     NOp   4
 Largest Abelian subgroup         C2H     NOp   4
 Largest concise Abelian subgroup C2      NOp   2
                         Standard orientation:                         
 ---------------------------------------------------------------------
 Center     Atomic      Atomic             Coordinates (Angstroms)
 Number     Number       Type             X           Y           Z
 ---------------------------------------------------------------------
      1          6           0       -0.000000    0.677600   -0.000000
      2          1           0        0.924521    1.216266   -0.000000
      3          1           0       -0.927705    1.210764   -0.000000
      4          6           0        0.000000   -0.677600   -0.000000
      5          1           0       -0.924521   -1.216266   -0.000000
      6          1           0        0.927705   -1.210764   -0.000000
 ---------------------------------------------------------------------
 Rotational constants (GHZ):         146.1648702          29.8053187          24.7569805
 Leave Link  202 at Sat Feb  9 14:30:35 2019, MaxMem= 10737418240 cpu:               0.5 elap:               0.0
 (Enter /hpc/applications/gaussian/g16b/g16/l301.exe)
 Standard basis: 6-31G(d,p) (6D, 7F)
 Ernie: Thresh=  0.10000D-02 Tol=  0.10000D-05 Strict=F.
 There are    19 symmetry adapted cartesian basis functions of AG  symmetry.
 There are     6 symmetry adapted cartesian basis functions of BG  symmetry.
 There are     6 symmetry adapted cartesian basis functions of AU  symmetry.
 There are    19 symmetry adapted cartesian basis functions of BU  symmetry.
 There are    19 symmetry adapted basis functions of AG  symmetry.
 There are     6 symmetry adapted basis functions of BG  symmetry.
 There are     6 symmetry adapted basis functions of AU  symmetry.
 There are    19 symmetry adapted basis functions of BU  symmetry.
    50 basis functions,    84 primitive gaussians,    50 cartesian basis functions
     8 alpha electrons        8 beta electrons
       nuclear repulsion energy        33.3121055290 Hartrees.
 IExCor= 2523 DFT=T Ex=TPSS Corr=TPSS ExCW=0 ScaHFX=  0.000000
 ScaDFX=  1.000000  1.000000  1.000000  1.000000 ScalE2=  1.000000  1.000000
 IRadAn=      5 IRanWt=     -1 IRanGd=            0 ICorTp=0 IEmpDi=  4
 NAtoms=    6 NActive=    6 NUniq=    3 SFac= 4.00D+00 NAtFMM=   60 NAOKFM=F Big=F
 Integral buffers will be    131072 words long.
 Raffenetti 2 integral format.
 Two-electron integral symmetry is turned on.
 Leave Link  301 at Sat Feb  9 14:30:35 2019, MaxMem= 10737418240 cpu:               2.9 elap:               0.1
 (Enter /hpc/applications/gaussian/g16b/g16/l302.exe)
 NPDir=0 NMtPBC=     1 NCelOv=     1 NCel=       1 NClECP=     1 NCelD=      1
         NCelK=      1 NCelE2=     1 NClLst=     1 CellRange=     0.0.
 One-electron integrals computed using PRISM.
 One-electron integral symmetry used in STVInt
 NBasis=    50 RedAO= T EigKep=  7.42D-03  NBF=    19     6     6    19
 NBsUse=    50 1.00D-06 EigRej= -1.00D+00 NBFU=    19     6     6    19
 Precomputing XC quadrature grid using
 IXCGrd= 4 IRadAn=           5 IRanWt=          -1 IRanGd=           0 AccXCQ= 0.00D+00.
 Generated NRdTot=       0 NPtTot=           0 NUsed=           0 NTot=          32
 NSgBfM=    50    50    50    50    50 MxSgAt=     6 MxSgA2=     6.
 Leave Link  302 at Sat Feb  9 14:30:35 2019, MaxMem= 10737418240 cpu:               4.4 elap:               0.1
 (Enter /hpc/applications/gaussian/g16b/g16/l303.exe)
 DipDrv:  MaxL=1.
 Leave Link  303 at Sat Feb  9 14:30:35 2019, MaxMem= 10737418240 cpu:               0.9 elap:               0.1
 (Enter /hpc/applications/gaussian/g16b/g16/l401.exe)
 ExpMin= 1.61D-01 ExpMax= 3.05D+03 ExpMxC= 4.57D+02 IAcc=3 IRadAn=         5 AccDes= 0.00D+00
 Harris functional with IExCor= 1009 and IRadAn=       5 diagonalized for initial guess.
 HarFok:  IExCor= 1009 AccDes= 0.00D+00 IRadAn=         5 IDoV= 1 UseB2=F ITyADJ=14
 ICtDFT=  3500011 ScaDFX=  1.000000  1.000000  1.000000  1.000000
 FoFCou: FMM=F IPFlag=           0 FMFlag=      100000 FMFlg1=           0
         NFxFlg=           0 DoJE=T BraDBF=F KetDBF=T FulRan=T
         wScrn=  0.000000 ICntrl=       500 IOpCl=  0 I1Cent=   200000004 NGrid=           0
         NMat0=    1 NMatS0=      1 NMatT0=    0 NMatD0=    1 NMtDS0=    0 NMtDT0=    0
 Petite list used in FoFCou.
 Harris En= -78.5482493245416    
 JPrj=0 DoOrth=F DoCkMO=F.
 Initial guess orbital symmetries:
       Occupied  (AG) (BU) (AG) (BU) (BU) (AG) (AG) (AU)
       Virtual   (BG) (AG) (BU) (BU) (AG) (BU) (AG) (AU) (BU) (BG)
                 (BU) (AG) (AG) (BU) (BU) (AG) (BU) (AG) (AU) (BG)
                 (AU) (AG) (BU) (AG) (AG) (BU) (BG) (BU) (AU) (BU)
                 (BG) (BG) (AU) (AG) (AG) (BU) (AG) (BU) (BU) (AG)
                 (AG) (BU)
 The electronic state of the initial guess is 1-AG.
 Leave Link  401 at Sat Feb  9 14:30:35 2019, MaxMem= 10737418240 cpu:               5.1 elap:               0.2
 (Enter /hpc/applications/gaussian/g16b/g16/l502.exe)
 Keep J ints in memory in symmetry-blocked form, NReq=32262966.
 FoFCou: FMM=F IPFlag=           0 FMFlag=           0 FMFlg1=           0
         NFxFlg=           0 DoJE=F BraDBF=F KetDBF=F FulRan=T
         wScrn=  0.000000 ICntrl=       600 IOpCl=  0 I1Cent=           0 NGrid=           0
         NMat0=    1 NMatS0=   1275 NMatT0=    0 NMatD0=    1 NMtDS0=    0 NMtDT0=    0
 Petite list used in FoFCou.
 Closed shell SCF:
 Using DIIS extrapolation, IDIIS=  1040.
 NGot= 10737418240 LenX= 10737186390 LenY= 10737183449
 Requested convergence on RMS density matrix=1.00D-08 within 128 cycles.
 Requested convergence on MAX density matrix=1.00D-06.
 Requested convergence on             energy=1.00D-06.
 No special actions if energy rises.
 Integral accuracy reduced to 1.0D-05 until final iterations.

 Cycle   1  Pass 0  IDiag  1:
 E= -78.5243477117415    
 DIIS: error= 4.83D-02 at cycle   1 NSaved=   1.
 NSaved= 1 IEnMin= 1 EnMin= -78.5243477117415     IErMin= 1 ErrMin= 4.83D-02
 ErrMax= 4.83D-02  0.00D+00 EMaxC= 1.00D-01 BMatC= 7.02D-02 BMatP= 7.02D-02
 IDIUse=3 WtCom= 5.17D-01 WtEn= 4.83D-01
 Coeff-Com:  0.100D+01
 Coeff-En:   0.100D+01
 Coeff:      0.100D+01
 Gap=     0.208 Goal=   None    Shift=    0.000
 GapD=    0.208 DampG=1.000 DampE=0.500 DampFc=0.5000 IDamp=-1.
 Damping current iteration by 5.00D-01
 RMSDP=1.12D-02 MaxDP=1.21D-01              OVMax= 1.69D-01

 Cycle   2  Pass 0  IDiag  1:
 E= -78.5598542158783     Delta-E=       -0.035506504137 Rises=F Damp=T
 DIIS: error= 1.67D-02 at cycle   2 NSaved=   2.
 NSaved= 2 IEnMin= 2 EnMin= -78.5598542158783     IErMin= 2 ErrMin= 1.67D-02
 ErrMax= 1.67D-02  0.00D+00 EMaxC= 1.00D-01 BMatC= 3.76D-03 BMatP= 7.02D-02
 IDIUse=3 WtCom= 8.33D-01 WtEn= 1.67D-01
 Coeff-Com:  0.601D-01 0.940D+00
 Coeff-En:   0.116D+00 0.884D+00
 Coeff:      0.695D-01 0.930D+00
 Gap=     0.220 Goal=   None    Shift=    0.000
 RMSDP=1.32D-03 MaxDP=1.33D-02 DE=-3.55D-02 OVMax= 9.11D-02

 Cycle   3  Pass 0  IDiag  1:
 E= -78.6026890177632     Delta-E=       -0.042834801885 Rises=F Damp=F
 DIIS: error= 9.91D-04 at cycle   3 NSaved=   3.
 NSaved= 3 IEnMin= 3 EnMin= -78.6026890177632     IErMin= 3 ErrMin= 9.91D-04
 ErrMax= 9.91D-04  0.00D+00 EMaxC= 1.00D-01 BMatC= 2.53D-05 BMatP= 3.76D-03
 IDIUse=3 WtCom= 9.90D-01 WtEn= 9.91D-03
 Coeff-Com: -0.714D-02 0.500D-01 0.957D+00
 Coeff-En:   0.000D+00 0.000D+00 0.100D+01
 Coeff:     -0.707D-02 0.495D-01 0.958D+00
 Gap=     0.217 Goal=   None    Shift=    0.000
 RMSDP=1.08D-04 MaxDP=1.15D-03 DE=-4.28D-02 OVMax= 2.16D-03

 Cycle   4  Pass 0  IDiag  1:
 E= -78.6027098519262     Delta-E=       -0.000020834163 Rises=F Damp=F
 DIIS: error= 2.50D-04 at cycle   4 NSaved=   4.
 NSaved= 4 IEnMin= 4 EnMin= -78.6027098519262     IErMin= 4 ErrMin= 2.50D-04
 ErrMax= 2.50D-04  0.00D+00 EMaxC= 1.00D-01 BMatC= 1.65D-06 BMatP= 2.53D-05
 IDIUse=3 WtCom= 9.97D-01 WtEn= 2.50D-03
 Coeff-Com: -0.239D-02 0.118D-01 0.264D+00 0.727D+00
 Coeff-En:   0.000D+00 0.000D+00 0.000D+00 0.100D+01
 Coeff:     -0.238D-02 0.118D-01 0.263D+00 0.727D+00
 Gap=     0.217 Goal=   None    Shift=    0.000
 RMSDP=2.64D-05 MaxDP=2.38D-04 DE=-2.08D-05 OVMax= 4.50D-04

 Cycle   5  Pass 0  IDiag  1:
 E= -78.6027115081812     Delta-E=       -0.000001656255 Rises=F Damp=F
 DIIS: error= 1.10D-05 at cycle   5 NSaved=   5.
 NSaved= 5 IEnMin= 5 EnMin= -78.6027115081812     IErMin= 5 ErrMin= 1.10D-05
 ErrMax= 1.10D-05  0.00D+00 EMaxC= 1.00D-01 BMatC= 4.81D-09 BMatP= 1.65D-06
 IDIUse=1 WtCom= 1.00D+00 WtEn= 0.00D+00
 Coeff-Com: -0.136D-03-0.708D-04 0.353D-02 0.457D-01 0.951D+00
 Coeff:     -0.136D-03-0.708D-04 0.353D-02 0.457D-01 0.951D+00
 Gap=     0.217 Goal=   None    Shift=    0.000
 RMSDP=1.35D-06 MaxDP=9.93D-06 DE=-1.66D-06 OVMax= 2.07D-05

 Initial convergence to 1.0D-05 achieved.  Increase integral accuracy.
 Cycle   6  Pass 1  IDiag  1:
 E= -78.6027125824187     Delta-E=       -0.000001074238 Rises=F Damp=F
 DIIS: error= 2.07D-06 at cycle   1 NSaved=   1.
 NSaved= 1 IEnMin= 1 EnMin= -78.6027125824187     IErMin= 1 ErrMin= 2.07D-06
 ErrMax= 2.07D-06  0.00D+00 EMaxC= 1.00D-01 BMatC= 9.89D-11 BMatP= 9.89D-11
 IDIUse=1 WtCom= 1.00D+00 WtEn= 0.00D+00
 Coeff-Com:  0.100D+01
 Coeff:      0.100D+01
 Gap=     0.217 Goal=   None    Shift=    0.000
 RMSDP=1.35D-06 MaxDP=9.93D-06 DE=-1.07D-06 OVMax= 3.84D-06

 Cycle   7  Pass 1  IDiag  1:
 E= -78.6027125825104     Delta-E=       -0.000000000092 Rises=F Damp=F
 DIIS: error= 1.40D-07 at cycle   2 NSaved=   2.
 NSaved= 2 IEnMin= 2 EnMin= -78.6027125825104     IErMin= 2 ErrMin= 1.40D-07
 ErrMax= 1.40D-07  0.00D+00 EMaxC= 1.00D-01 BMatC= 9.47D-13 BMatP= 9.89D-11
 IDIUse=1 WtCom= 1.00D+00 WtEn= 0.00D+00
 Coeff-Com:  0.435D-02 0.996D+00
 Coeff:      0.435D-02 0.996D+00
 Gap=     0.217 Goal=   None    Shift=    0.000
 RMSDP=3.46D-08 MaxDP=3.40D-07 DE=-9.17D-11 OVMax= 5.35D-07

 Cycle   8  Pass 1  IDiag  1:
 E= -78.6027125825109     Delta-E=       -0.000000000001 Rises=F Damp=F
 DIIS: error= 1.21D-07 at cycle   3 NSaved=   3.
 NSaved= 3 IEnMin= 3 EnMin= -78.6027125825109     IErMin= 3 ErrMin= 1.21D-07
 ErrMax= 1.21D-07  0.00D+00 EMaxC= 1.00D-01 BMatC= 4.58D-13 BMatP= 9.47D-13
 IDIUse=1 WtCom= 1.00D+00 WtEn= 0.00D+00
 Coeff-Com: -0.931D-02 0.399D+00 0.611D+00
 Coeff:     -0.931D-02 0.399D+00 0.611D+00
 Gap=     0.217 Goal=   None    Shift=    0.000
 RMSDP=1.61D-08 MaxDP=1.82D-07 DE=-5.40D-13 OVMax= 2.40D-07

 Cycle   9  Pass 1  IDiag  1:
 E= -78.6027125825113     Delta-E=       -0.000000000000 Rises=F Damp=F
 DIIS: error= 3.45D-08 at cycle   4 NSaved=   4.
 NSaved= 4 IEnMin= 4 EnMin= -78.6027125825113     IErMin= 4 ErrMin= 3.45D-08
 ErrMax= 3.45D-08  0.00D+00 EMaxC= 1.00D-01 BMatC= 3.69D-14 BMatP= 4.58D-13
 IDIUse=1 WtCom= 1.00D+00 WtEn= 0.00D+00
 Coeff-Com: -0.342D-02 0.630D-01 0.256D+00 0.684D+00
 Coeff:     -0.342D-02 0.630D-01 0.256D+00 0.684D+00
 Gap=     0.217 Goal=   None    Shift=    0.000
 RMSDP=4.23D-09 MaxDP=4.10D-08 DE=-3.98D-13 OVMax= 6.40D-08

 SCF Done:  E(RTPSS-TPSS) =  -78.6027125825     A.U. after    9 cycles
            NFock=  9  Conv=0.42D-08     -V/T= 2.0083
 KE= 7.795783951606D+01 PE=-2.482073519434D+02 EE= 5.833469431589D+01
 Leave Link  502 at Sat Feb  9 14:30:36 2019, MaxMem= 10737418240 cpu:               9.5 elap:               0.3
 (Enter /hpc/applications/gaussian/g16b/g16/l601.exe)
 Copying SCF densities to generalized density rwf, IOpCl= 0 IROHF=0.

 **********************************************************************

            Population analysis using the SCF Density.

 **********************************************************************

 Orbital symmetries:
       Occupied  (AG) (BU) (AG) (BU) (BU) (AG) (AG) (AU)
       Virtual   (BG) (AG) (BU) (BU) (AG) (BU) (AG) (AU) (BU) (BG)
                 (AG) (BU) (BU) (AG) (BU) (AG) (BU) (AG) (AU) (BG)
                 (AU) (AG) (BU) (AG) (AG) (BU) (BG) (BU) (AU) (BG)
                 (BU) (BG) (AU) (AG) (AG) (BU) (AG) (BU) (BU) (AG)
                 (AG) (BU)
 The electronic state is 1-AG.
 Alpha  occ. eigenvalues --   -9.99342  -9.99288  -0.69436  -0.53250  -0.42657
 Alpha  occ. eigenvalues --   -0.36116  -0.32286  -0.23020
 Alpha virt. eigenvalues --   -0.01274   0.11048   0.13556   0.15140   0.23398
 Alpha virt. eigenvalues --    0.30240   0.46373   0.53409   0.55364   0.61625
 Alpha virt. eigenvalues --    0.63241   0.66233   0.83037   0.83533   0.90705
 Alpha virt. eigenvalues --    0.91826   1.07454   1.21791   1.35547   1.36300
 Alpha virt. eigenvalues --    1.50370   1.85897   1.89723   1.92541   2.02357
 Alpha virt. eigenvalues --    2.05742   2.13278   2.25677   2.37952   2.49394
 Alpha virt. eigenvalues --    2.49939   2.58604   2.71695   2.73153   2.77550
 Alpha virt. eigenvalues --    2.99289   3.25012   3.37924   3.55908   3.77046
 Alpha virt. eigenvalues --    4.15053   4.49617
          Condensed to atoms (all electrons):
               1          2          3          4          5          6
     1  C    4.881188   0.393031   0.393030   0.648430  -0.038883  -0.039254
     2  H    0.393031   0.570077  -0.039711  -0.038883   0.005130  -0.008556
     3  H    0.393030  -0.039711   0.570667  -0.039254  -0.008556   0.005194
     4  C    0.648430  -0.038883  -0.039254   4.881188   0.393031   0.393030
     5  H   -0.038883   0.005130  -0.008556   0.393031   0.570077  -0.039711
     6  H   -0.039254  -0.008556   0.005194   0.393030  -0.039711   0.570667
 Mulliken charges:
               1
     1  C   -0.237541
     2  H    0.118912
     3  H    0.118629
     4  C   -0.237541
     5  H    0.118912
     6  H    0.118629
 Sum of Mulliken charges =   0.00000
 Mulliken charges with hydrogens summed into heavy atoms:
               1
     1  C    0.000000
     4  C    0.000000
 Electronic spatial extent (au):  <R**2>=             81.9217
 Charge=              0.0000 electrons
 Dipole moment (field-independent basis, Debye):
    X=              0.0000    Y=             -0.0000    Z=              0.0000  Tot=              0.0000
 Quadrupole moment (field-independent basis, Debye-Ang):
   XX=            -11.9162   YY=            -12.0953   ZZ=            -14.9400
   XY=              0.0125   XZ=             -0.0000   YZ=              0.0000
 Traceless Quadrupole moment (field-independent basis, Debye-Ang):
   XX=              1.0677   YY=              0.8885   ZZ=             -1.9562
   XY=              0.0125   XZ=             -0.0000   YZ=              0.0000
 Octapole moment (field-independent basis, Debye-Ang**2):
  XXX=              0.0000  YYY=             -0.0000  ZZZ=              0.0000  XYY=              0.0000
  XXY=             -0.0000  XXZ=              0.0000  XZZ=             -0.0000  YZZ=             -0.0000
  YYZ=              0.0000  XYZ=              0.0000
 Hexadecapole moment (field-independent basis, Debye-Ang**3):
 XXXX=            -25.4451 YYYY=            -66.5632 ZZZZ=            -15.3983 XXXY=              0.0018
 XXXZ=              0.0000 YYYX=              0.0516 YYYZ=             -0.0000 ZZZX=              0.0000
 ZZZY=             -0.0000 XXYY=            -13.0453 XXZZ=             -7.4308 YYZZ=            -14.4210
 XXYZ=             -0.0000 YYXZ=             -0.0000 ZZXY=              0.0009
 N-N= 3.331210552897D+01 E-N=-2.482073534879D+02  KE= 7.795783951606D+01
 Symmetry AG   KE= 3.952384984181D+01
 Symmetry BG   KE= 3.200518418517D-33
 Symmetry AU   KE= 2.085381097425D+00
 Symmetry BU   KE= 3.634860857683D+01
 No NMR shielding tensors so no spin-rotation constants.
 Leave Link  601 at Sat Feb  9 14:30:36 2019, MaxMem= 10737418240 cpu:               4.7 elap:               0.2
 (Enter /hpc/applications/gaussian/g16b/g16/l701.exe)
 ... and contract with generalized density number  0.
 Compute integral first derivatives.
 Leave Link  701 at Sat Feb  9 14:30:36 2019, MaxMem= 10737418240 cpu:               4.5 elap:               0.2
 (Enter /hpc/applications/gaussian/g16b/g16/l702.exe)
 L702 exits ... SP integral derivatives will be done elsewhere.
 Leave Link  702 at Sat Feb  9 14:30:36 2019, MaxMem= 10737418240 cpu:               0.7 elap:               0.0
 (Enter /hpc/applications/gaussian/g16b/g16/l703.exe)
 Integral derivatives from FoFJK, PRISM(SPDF).
 Compute integral first derivatives, UseDBF=F ICtDFT=           0.
 Calling FoFJK, ICntrl=      2527 FMM=F ISym2X=1 I1Cent= 0 IOpClX= 0 NMat=1 NMatS=1 NMatT=0.
 FoFJK:  IHMeth= 1 ICntrl=    2527 DoSepK=F KAlg= 0 I1Cent=           0 FoldK=F
 IRaf=         0 NMat=       1 IRICut=       1 DoRegI=T DoRafI=F ISym2E= 1 IDoP0=0 IntGTp=1.
 FoFCou: FMM=F IPFlag=           0 FMFlag=      100000 FMFlg1=         800
         NFxFlg=           0 DoJE=F BraDBF=F KetDBF=F FulRan=T
         wScrn=  0.000000 ICntrl=      2527 IOpCl=  0 I1Cent=           0 NGrid=           0
         NMat0=    1 NMatS0=      1 NMatT0=    0 NMatD0=    1 NMtDS0=    0 NMtDT0=    0
 Petite list used in FoFCou.
 Leave Link  703 at Sat Feb  9 14:30:36 2019, MaxMem= 10737418240 cpu:               8.2 elap:               0.3
 (Enter /hpc/applications/gaussian/g16b/g16/l716.exe)
 Dipole        = 6.66133815D-16-8.88178420D-16 8.87025101D-36
 ***** Axes restored to original set *****
 -------------------------------------------------------------------
 Center     Atomic                   Forces (Hartrees/Bohr)
 Number     Number              X              Y              Z
 -------------------------------------------------------------------
      1        6           0.017570724    0.032066432    0.000000000
      2        1           0.002789704   -0.013053754   -0.000000000
      3        1          -0.012849613   -0.004531375   -0.000000000
      4        6          -0.017570724   -0.032066432   -0.000000000
      5        1          -0.002789704    0.013053754    0.000000000
      6        1           0.012849613    0.004531375    0.000000000
 -------------------------------------------------------------------
 Cartesian Forces:  Max     0.032066432 RMS     0.013746981
 Leave Link  716 at Sat Feb  9 14:30:36 2019, MaxMem= 10737418240 cpu:               1.0 elap:               0.1
 (Enter /hpc/applications/gaussian/g16b/g16/l103.exe)

 GradGradGradGradGradGradGradGradGradGradGradGradGradGradGradGradGradGrad
 Berny optimization.
 FormGI is forming the generalized inverse of G from B-inverse, IUseBI=4.
 Internal  Forces:  Max     0.016298009 RMS     0.008249601
 Search for a local minimum.
 Step number   1 out of a maximum of   25
 All quantities printed in internal units (Hartrees-Bohrs-Radians)
 RMS Force = .82496D-02 SwitMx=.10000D-02 MixMth= 1
 Mixed Optimization -- RFO/linear search
 Second derivative matrix not updated -- first step.
 The second derivative matrix:
                          R1        R2        R3        R4        R5
           R1           0.37230
           R2           0.00000   0.37230
           R3           0.00000   0.00000   0.53930
           R4           0.00000   0.00000   0.00000   0.37230
           R5           0.00000   0.00000   0.00000   0.00000   0.37230
           A1           0.00000   0.00000   0.00000   0.00000   0.00000
           A2           0.00000   0.00000   0.00000   0.00000   0.00000
           A3           0.00000   0.00000   0.00000   0.00000   0.00000
           A4           0.00000   0.00000   0.00000   0.00000   0.00000
           A5           0.00000   0.00000   0.00000   0.00000   0.00000
           A6           0.00000   0.00000   0.00000   0.00000   0.00000
           D1           0.00000   0.00000   0.00000   0.00000   0.00000
           D2           0.00000   0.00000   0.00000   0.00000   0.00000
           D3           0.00000   0.00000   0.00000   0.00000   0.00000
           D4           0.00000   0.00000   0.00000   0.00000   0.00000
                          A1        A2        A3        A4        A5
           A1           0.16000
           A2           0.00000   0.16000
           A3           0.00000   0.00000   0.16000
           A4           0.00000   0.00000   0.00000   0.16000
           A5           0.00000   0.00000   0.00000   0.00000   0.16000
           A6           0.00000   0.00000   0.00000   0.00000   0.00000
           D1           0.00000   0.00000   0.00000   0.00000   0.00000
           D2           0.00000   0.00000   0.00000   0.00000   0.00000
           D3           0.00000   0.00000   0.00000   0.00000   0.00000
           D4           0.00000   0.00000   0.00000   0.00000   0.00000
                          A6        D1        D2        D3        D4
           A6           0.16000
           D1           0.00000   0.02681
           D2           0.00000   0.00000   0.02681
           D3           0.00000   0.00000   0.00000   0.02681
           D4           0.00000   0.00000   0.00000   0.00000   0.02681
 ITU=  0
     Eigenvalues ---    0.02681   0.02681   0.02681   0.16000   0.16000
     Eigenvalues ---    0.16000   0.16000   0.37230   0.37230   0.37230
     Eigenvalues ---    0.37230   0.53930
 RFO step:  Lambda=-2.85746128D-03 EMin= 2.68137388D-02
 Linear search not attempted -- first point.
 Iteration  1 RMS(Cart)=  0.01901820 RMS(Int)=  0.00031318
 Iteration  2 RMS(Cart)=  0.00035585 RMS(Int)=  0.00000006
 Iteration  3 RMS(Cart)=  0.00000006 RMS(Int)=  0.00000000
 ITry= 1 IFail=0 DXMaxC= 3.22D-02 DCOld= 1.00D+10 DXMaxT= 3.00D-01 DXLimC= 3.00D+00 Rises=F
 ClnCor:  largest displacement from symmetrization is 1.54D-13 for atom     4.
 Variable       Old X    -DE/DX   Delta X   Delta X   Delta X     New X
                                 (Linear)    (Quad)   (Total)
    R1        2.02201   0.01271   0.00000   0.03387   0.03387   2.05588
    R2        2.02201   0.01285   0.00000   0.03425   0.03425   2.05626
    R3        2.56096  -0.01630   0.00000  -0.03006  -0.03006   2.53090
    R4        2.02201   0.01271   0.00000   0.03387   0.03387   2.05588
    R5        2.02201   0.01285   0.00000   0.03425   0.03425   2.05626
    A1        2.09241  -0.00581   0.00000  -0.03566  -0.03566   2.05675
    A2        2.09836   0.00245   0.00000   0.01506   0.01506   2.11342
    A3        2.09241   0.00335   0.00000   0.02060   0.02060   2.11301
    A4        2.09836   0.00245   0.00000   0.01506   0.01506   2.11342
    A5        2.09241   0.00335   0.00000   0.02060   0.02060   2.11301
    A6        2.09241  -0.00581   0.00000  -0.03566  -0.03566   2.05675
    D1        3.14159  -0.00000   0.00000   0.00000   0.00000   3.14159
    D2        0.00000   0.00000   0.00000   0.00000  -0.00000   0.00000
    D3       -0.00000  -0.00000   0.00000  -0.00000   0.00000   0.00000
    D4        3.14159  -0.00000   0.00000  -0.00000   0.00000   3.14159
         Item               Value     Threshold  Converged?
 Maximum Force            0.016298     0.000015     NO 
 RMS     Force            0.008250     0.000010     NO 
 Maximum Displacement     0.032152     0.000060     NO 
 RMS     Displacement     0.019093     0.000040     NO 
 Predicted change in Energy=-1.442147D-03
 Lowest energy point so far.  Saving SCF results.
 GradGradGradGradGradGradGradGradGradGradGradGradGradGradGradGradGradGrad

 Leave Link  103 at Sat Feb  9 14:30:36 2019, MaxMem= 10737418240 cpu:               0.8 elap:               0.1
 (Enter /hpc/applications/gaussian/g16b/g16/l202.exe)
                          Input orientation:                          
 ---------------------------------------------------------------------
 Center     Atomic      Atomic             Coordinates (Angstroms)
 Number     Number       Type             X           Y           Z
 ---------------------------------------------------------------------
      1          6           0       -1.105078   -1.100675   -0.000000
      2          1           0       -0.578783   -2.052827   -0.000000
      3          1           0       -2.193006   -1.121338   -0.000000
      4          6           0       -0.435864    0.059436    0.000000
      5          1           0       -0.962159    1.011588    0.000000
      6          1           0        0.652064    0.080099    0.000000
 ---------------------------------------------------------------------
                    Distance matrix (angstroms):
                    1          2          3          4          5
     1  C    0.000000
     2  H    1.087925   0.000000
     3  H    1.088125   1.863703   0.000000
     4  C    1.339292   2.117093   2.117020   0.000000
     5  H    2.117093   3.088304   2.462592   1.087925   0.000000
     6  H    2.117020   2.462592   3.088345   1.088125   1.863703
                    6
     6  H    0.000000
 Stoichiometry    C2H4
 Framework group  C2H[SGH(C2H4)]
 Deg. of freedom     5
 Full point group                 C2H     NOp   4
 RotChk:  IX=2 Diff= 2.27D-03
 Largest Abelian subgroup         C2H     NOp   4
 Largest concise Abelian subgroup C2      NOp   2
                         Standard orientation:                         
 ---------------------------------------------------------------------
 Center     Atomic      Atomic             Coordinates (Angstroms)
 Number     Number       Type             X           Y           Z
 ---------------------------------------------------------------------
      1          6           0        0.000000    0.669646    0.000000
      2          1           0        0.931651    1.231435    0.000000
      3          1           0       -0.932052    1.231157    0.000000
      4          6           0        0.000000   -0.669646    0.000000
      5          1           0       -0.931651   -1.231435    0.000000
      6          1           0        0.932052   -1.231157    0.000000
 ---------------------------------------------------------------------
 Rotational constants (GHZ):         144.3704902          29.9501015          24.8043607
 Leave Link  202 at Sat Feb  9 14:30:37 2019, MaxMem= 10737418240 cpu:               0.4 elap:               0.0
 (Enter /hpc/applications/gaussian/g16b/g16/l301.exe)
 Standard basis: 6-31G(d,p) (6D, 7F)
 Ernie: Thresh=  0.10000D-02 Tol=  0.10000D-05 Strict=F.
 There are    19 symmetry adapted cartesian basis functions of AG  symmetry.
 There are     6 symmetry adapted cartesian basis functions of BG  symmetry.
 There are     6 symmetry adapted cartesian basis functions of AU  symmetry.
 There are    19 symmetry adapted cartesian basis functions of BU  symmetry.
 There are    19 symmetry adapted basis functions of AG  symmetry.
 There are     6 symmetry adapted basis functions of BG  symmetry.
 There are     6 symmetry adapted basis functions of AU  symmetry.
 There are    19 symmetry adapted basis functions of BU  symmetry.
    50 basis functions,    84 primitive gaussians,    50 cartesian basis functions
     8 alpha electrons        8 beta electrons
       nuclear repulsion energy        33.2363341247 Hartrees.
 IExCor= 2523 DFT=T Ex=TPSS Corr=TPSS ExCW=0 ScaHFX=  0.000000
 ScaDFX=  1.000000  1.000000  1.000000  1.000000 ScalE2=  1.000000  1.000000
 IRadAn=      5 IRanWt=     -1 IRanGd=            0 ICorTp=0 IEmpDi=  4
 NAtoms=    6 NActive=    6 NUniq=    3 SFac= 4.00D+00 NAtFMM=   60 NAOKFM=F Big=F
 Integral buffers will be    131072 words long.
 Raffenetti 2 integral format.
 Two-electron integral symmetry is turned on.
 Leave Link  301 at Sat Feb  9 14:30:37 2019, MaxMem= 10737418240 cpu:               2.4 elap:               0.1
 (Enter /hpc/applications/gaussian/g16b/g16/l302.exe)
 NPDir=0 NMtPBC=     1 NCelOv=     1 NCel=       1 NClECP=     1 NCelD=      1
         NCelK=      1 NCelE2=     1 NClLst=     1 CellRange=     0.0.
 One-electron integrals computed using PRISM.
 One-electron integral symmetry used in STVInt
 NBasis=    50 RedAO= T EigKep=  7.10D-03  NBF=    19     6     6    19
 NBsUse=    50 1.00D-06 EigRej= -1.00D+00 NBFU=    19     6     6    19
 Precomputing XC quadrature grid using
 IXCGrd= 4 IRadAn=           5 IRanWt=          -1 IRanGd=           0 AccXCQ= 0.00D+00.
 Generated NRdTot=       0 NPtTot=           0 NUsed=           0 NTot=          32
 NSgBfM=    50    50    50    50    50 MxSgAt=     6 MxSgA2=     6.
 Leave Link  302 at Sat Feb  9 14:30:37 2019, MaxMem= 10737418240 cpu:               4.4 elap:               0.1
 (Enter /hpc/applications/gaussian/g16b/g16/l303.exe)
 DipDrv:  MaxL=1.
 Leave Link  303 at Sat Feb  9 14:30:37 2019, MaxMem= 10737418240 cpu:               1.9 elap:               0.1
 (Enter /hpc/applications/gaussian/g16b/g16/l401.exe)
 Initial guess from the checkpoint file:  "ethene.chk"
 B after Tr=     0.000000    0.000000    0.000000
         Rot=    1.000000   -0.000000    0.000000    0.000558 Ang=   0.06 deg.
 Guess basis will be translated and rotated to current coordinates.
 JPrj=2 DoOrth=T DoCkMO=T.
 Initial guess orbital symmetries:
       Occupied  (AG) (BU) (AG) (BU) (BU) (AG) (AG) (AU)
       Virtual   (BG) (AG) (BU) (BU) (AG) (BU) (AG) (AU) (BU) (BG)
                 (AG) (BU) (BU) (AG) (BU) (AG) (BU) (AG) (AU) (BG)
                 (AU) (AG) (BU) (AG) (AG) (BU) (BG) (BU) (AU) (BG)
                 (BU) (BG) (AU) (AG) (AG) (BU) (AG) (BU) (BU) (AG)
                 (AG) (BU)
 The electronic state of the initial guess is 1-AG.
 Generating alternative initial guess.
 ExpMin= 1.61D-01 ExpMax= 3.05D+03 ExpMxC= 4.57D+02 IAcc=3 IRadAn=         5 AccDes= 0.00D+00
 Harris functional with IExCor= 1009 and IRadAn=       5 diagonalized for initial guess.
 HarFok:  IExCor= 1009 AccDes= 0.00D+00 IRadAn=         5 IDoV= 1 UseB2=F ITyADJ=14
 ICtDFT=  3500011 ScaDFX=  1.000000  1.000000  1.000000  1.000000
 FoFCou: FMM=F IPFlag=           0 FMFlag=      100000 FMFlg1=           0
         NFxFlg=           0 DoJE=T BraDBF=F KetDBF=T FulRan=T
         wScrn=  0.000000 ICntrl=       500 IOpCl=  0 I1Cent=   200000004 NGrid=           0
         NMat0=    1 NMatS0=      1 NMatT0=    0 NMatD0=    1 NMtDS0=    0 NMtDT0=    0
 Petite list used in FoFCou.
 Harris En= -78.5479211739507    
 Leave Link  401 at Sat Feb  9 14:30:37 2019, MaxMem= 10737418240 cpu:               7.1 elap:               0.2
 (Enter /hpc/applications/gaussian/g16b/g16/l502.exe)
 Keep J ints in memory in symmetry-blocked form, NReq=32262966.
 FoFCou: FMM=F IPFlag=           0 FMFlag=           0 FMFlg1=           0
         NFxFlg=           0 DoJE=F BraDBF=F KetDBF=F FulRan=T
         wScrn=  0.000000 ICntrl=       600 IOpCl=  0 I1Cent=           0 NGrid=           0
         NMat0=    1 NMatS0=   1275 NMatT0=    0 NMatD0=    1 NMtDS0=    0 NMtDT0=    0
 Petite list used in FoFCou.
 Closed shell SCF:
 Using DIIS extrapolation, IDIIS=  1040.
 NGot= 10737418240 LenX= 10737186390 LenY= 10737183449
 Requested convergence on RMS density matrix=1.00D-08 within 128 cycles.
 Requested convergence on MAX density matrix=1.00D-06.
 Requested convergence on             energy=1.00D-06.
 No special actions if energy rises.
 Integral accuracy reduced to 1.0D-05 until final iterations.

 Cycle   1  Pass 0  IDiag  1:
 E= -78.6040230980592    
 DIIS: error= 2.42D-03 at cycle   1 NSaved=   1.
 NSaved= 1 IEnMin= 1 EnMin= -78.6040230980592     IErMin= 1 ErrMin= 2.42D-03
 ErrMax= 2.42D-03  0.00D+00 EMaxC= 1.00D-01 BMatC= 1.84D-04 BMatP= 1.84D-04
 IDIUse=3 WtCom= 9.76D-01 WtEn= 2.42D-02
 Coeff-Com:  0.100D+01
 Coeff-En:   0.100D+01
 Coeff:      0.100D+01
 Gap=     0.224 Goal=   None    Shift=    0.000
 GapD=    0.224 DampG=1.000 DampE=1.000 DampFc=1.0000 IDamp=-1.
 RMSDP=4.37D-04 MaxDP=4.64D-03              OVMax= 9.11D-03

 Cycle   2  Pass 0  IDiag  1:
 E= -78.6043220101115     Delta-E=       -0.000298912052 Rises=F Damp=F
 DIIS: error= 6.74D-04 at cycle   2 NSaved=   2.
 NSaved= 2 IEnMin= 2 EnMin= -78.6043220101115     IErMin= 2 ErrMin= 6.74D-04
 ErrMax= 6.74D-04  0.00D+00 EMaxC= 1.00D-01 BMatC= 1.23D-05 BMatP= 1.84D-04
 IDIUse=3 WtCom= 9.93D-01 WtEn= 6.74D-03
 Coeff-Com:  0.124D+00 0.876D+00
 Coeff-En:   0.000D+00 0.100D+01
 Coeff:      0.123D+00 0.877D+00
 Gap=     0.223 Goal=   None    Shift=    0.000
 RMSDP=1.24D-04 MaxDP=1.15D-03 DE=-2.99D-04 OVMax= 1.71D-03

 Cycle   3  Pass 0  IDiag  1:
 E= -78.6043304455710     Delta-E=       -0.000008435460 Rises=F Damp=F
 DIIS: error= 3.94D-04 at cycle   3 NSaved=   3.
 NSaved= 3 IEnMin= 3 EnMin= -78.6043304455710     IErMin= 3 ErrMin= 3.94D-04
 ErrMax= 3.94D-04  0.00D+00 EMaxC= 1.00D-01 BMatC= 5.04D-06 BMatP= 1.23D-05
 IDIUse=3 WtCom= 9.96D-01 WtEn= 3.94D-03
 Coeff-Com:  0.227D-01 0.383D+00 0.594D+00
 Coeff-En:   0.000D+00 0.227D+00 0.773D+00
 Coeff:      0.226D-01 0.382D+00 0.595D+00
 Gap=     0.223 Goal=   None    Shift=    0.000
 RMSDP=5.23D-05 MaxDP=6.08D-04 DE=-8.44D-06 OVMax= 7.91D-04

 Cycle   4  Pass 0  IDiag  1:
 E= -78.6043357417228     Delta-E=       -0.000005296152 Rises=F Damp=F
 DIIS: error= 9.22D-05 at cycle   4 NSaved=   4.
 NSaved= 4 IEnMin= 4 EnMin= -78.6043357417228     IErMin= 4 ErrMin= 9.22D-05
 ErrMax= 9.22D-05  0.00D+00 EMaxC= 1.00D-01 BMatC= 3.13D-07 BMatP= 5.04D-06
 IDIUse=1 WtCom= 1.00D+00 WtEn= 0.00D+00
 Coeff-Com: -0.979D-03 0.868D-01 0.241D+00 0.673D+00
 Coeff:     -0.979D-03 0.868D-01 0.241D+00 0.673D+00
 Gap=     0.223 Goal=   None    Shift=    0.000
 RMSDP=1.10D-05 MaxDP=1.04D-04 DE=-5.30D-06 OVMax= 1.98D-04

 Cycle   5  Pass 0  IDiag  1:
 E= -78.6043360596605     Delta-E=       -0.000000317938 Rises=F Damp=F
 DIIS: error= 7.33D-06 at cycle   5 NSaved=   5.
 NSaved= 5 IEnMin= 5 EnMin= -78.6043360596605     IErMin= 5 ErrMin= 7.33D-06
 ErrMax= 7.33D-06  0.00D+00 EMaxC= 1.00D-01 BMatC= 1.78D-09 BMatP= 3.13D-07
 IDIUse=1 WtCom= 1.00D+00 WtEn= 0.00D+00
 Coeff-Com: -0.552D-03 0.586D-02 0.238D-01 0.124D+00 0.847D+00
 Coeff:     -0.552D-03 0.586D-02 0.238D-01 0.124D+00 0.847D+00
 Gap=     0.223 Goal=   None    Shift=    0.000
 RMSDP=1.15D-06 MaxDP=1.21D-05 DE=-3.18D-07 OVMax= 1.56D-05

 Initial convergence to 1.0D-05 achieved.  Increase integral accuracy.
 Cycle   6  Pass 1  IDiag  1:
 E= -78.6043362181668     Delta-E=       -0.000000158506 Rises=F Damp=F
 DIIS: error= 1.76D-06 at cycle   1 NSaved=   1.
 NSaved= 1 IEnMin= 1 EnMin= -78.6043362181668     IErMin= 1 ErrMin= 1.76D-06
 ErrMax= 1.76D-06  0.00D+00 EMaxC= 1.00D-01 BMatC= 7.91D-11 BMatP= 7.91D-11
 IDIUse=1 WtCom= 1.00D+00 WtEn= 0.00D+00
 Coeff-Com:  0.100D+01
 Coeff:      0.100D+01
 Gap=     0.223 Goal=   None    Shift=    0.000
 RMSDP=1.15D-06 MaxDP=1.21D-05 DE=-1.59D-07 OVMax= 4.04D-06

 Cycle   7  Pass 1  IDiag  1:
 E= -78.6043362182434     Delta-E=       -0.000000000077 Rises=F Damp=F
 DIIS: error= 2.26D-07 at cycle   2 NSaved=   2.
 NSaved= 2 IEnMin= 2 EnMin= -78.6043362182434     IErMin= 2 ErrMin= 2.26D-07
 ErrMax= 2.26D-07  0.00D+00 EMaxC= 1.00D-01 BMatC= 2.32D-12 BMatP= 7.91D-11
 IDIUse=1 WtCom= 1.00D+00 WtEn= 0.00D+00
 Coeff-Com:  0.142D-01 0.986D+00
 Coeff:      0.142D-01 0.986D+00
 Gap=     0.223 Goal=   None    Shift=    0.000
 RMSDP=6.11D-08 MaxDP=7.09D-07 DE=-7.66D-11 OVMax= 9.50D-07

 Cycle   8  Pass 1  IDiag  1:
 E= -78.6043362182433     Delta-E=        0.000000000000 Rises=F Damp=F
 DIIS: error= 2.84D-07 at cycle   3 NSaved=   3.
 NSaved= 3 IEnMin= 2 EnMin= -78.6043362182434     IErMin= 2 ErrMin= 2.26D-07
 ErrMax= 2.84D-07  0.00D+00 EMaxC= 1.00D-01 BMatC= 2.47D-12 BMatP= 2.32D-12
 IDIUse=1 WtCom= 1.00D+00 WtEn= 0.00D+00
 Coeff-Com: -0.168D-01 0.516D+00 0.501D+00
 Coeff:     -0.168D-01 0.516D+00 0.501D+00
 Gap=     0.223 Goal=   None    Shift=    0.000
 RMSDP=3.18D-08 MaxDP=3.50D-07 DE= 1.28D-13 OVMax= 4.86D-07

 Cycle   9  Pass 1  IDiag  1:
 E= -78.6043362182461     Delta-E=       -0.000000000003 Rises=F Damp=F
 DIIS: error= 2.12D-08 at cycle   4 NSaved=   4.
 NSaved= 4 IEnMin= 4 EnMin= -78.6043362182461     IErMin= 4 ErrMin= 2.12D-08
 ErrMax= 2.12D-08  0.00D+00 EMaxC= 1.00D-01 BMatC= 1.29D-14 BMatP= 2.32D-12
 IDIUse=1 WtCom= 1.00D+00 WtEn= 0.00D+00
 Coeff-Com: -0.569D-02 0.116D+00 0.140D+00 0.749D+00
 Coeff:     -0.569D-02 0.116D+00 0.140D+00 0.749D+00
 Gap=     0.223 Goal=   None    Shift=    0.000
 RMSDP=2.78D-09 MaxDP=3.17D-08 DE=-2.74D-12 OVMax= 4.48D-08

 SCF Done:  E(RTPSS-TPSS) =  -78.6043362182     A.U. after    9 cycles
            NFock=  9  Conv=0.28D-08     -V/T= 2.0091
 KE= 7.789879943216D+01 PE=-2.480156807119D+02 EE= 5.827621093678D+01
 Leave Link  502 at Sat Feb  9 14:30:37 2019, MaxMem= 10737418240 cpu:               9.0 elap:               0.3
 (Enter /hpc/applications/gaussian/g16b/g16/l701.exe)
 ... and contract with generalized density number  0.
 Compute integral first derivatives.
 Leave Link  701 at Sat Feb  9 14:30:38 2019, MaxMem= 10737418240 cpu:               4.2 elap:               0.1
 (Enter /hpc/applications/gaussian/g16b/g16/l702.exe)
 L702 exits ... SP integral derivatives will be done elsewhere.
 Leave Link  702 at Sat Feb  9 14:30:38 2019, MaxMem= 10737418240 cpu:               0.8 elap:               0.0
 (Enter /hpc/applications/gaussian/g16b/g16/l703.exe)
 Integral derivatives from FoFJK, PRISM(SPDF).
 Compute integral first derivatives, UseDBF=F ICtDFT=           0.
 Calling FoFJK, ICntrl=      2527 FMM=F ISym2X=1 I1Cent= 0 IOpClX= 0 NMat=1 NMatS=1 NMatT=0.
 FoFJK:  IHMeth= 1 ICntrl=    2527 DoSepK=F KAlg= 0 I1Cent=           0 FoldK=F
 IRaf=         0 NMat=       1 IRICut=       1 DoRegI=T DoRafI=F ISym2E= 1 IDoP0=0 IntGTp=1.
 FoFCou: FMM=F IPFlag=           0 FMFlag=      100000 FMFlg1=         800
         NFxFlg=           0 DoJE=F BraDBF=F KetDBF=F FulRan=T
         wScrn=  0.000000 ICntrl=      2527 IOpCl=  0 I1Cent=           0 NGrid=           0
         NMat0=    1 NMatS0=      1 NMatT0=    0 NMatD0=    1 NMtDS0=    0 NMtDT0=    0
 Petite list used in FoFCou.
 Leave Link  703 at Sat Feb  9 14:30:38 2019, MaxMem= 10737418240 cpu:               7.6 elap:               0.2
 (Enter /hpc/applications/gaussian/g16b/g16/l716.exe)
 Dipole        = 2.22044605D-16-4.44089210D-16 0.00000000D+00
 ***** Axes restored to original set *****
 -------------------------------------------------------------------
 Center     Atomic                   Forces (Hartrees/Bohr)
 Number     Number              X              Y              Z
 -------------------------------------------------------------------
      1        6           0.002709084    0.005011782   -0.000000000
      2        1          -0.001546709   -0.001420497    0.000000000
      3        1          -0.000332464   -0.002071957   -0.000000000
      4        6          -0.002709084   -0.005011782   -0.000000000
      5        1           0.001546709    0.001420497   -0.000000000
      6        1           0.000332464    0.002071957   -0.000000000
 -------------------------------------------------------------------
 Cartesian Forces:  Max     0.005011782 RMS     0.002141410
 Leave Link  716 at Sat Feb  9 14:30:38 2019, MaxMem= 10737418240 cpu:               2.0 elap:               0.1
 (Enter /hpc/applications/gaussian/g16b/g16/l103.exe)

 GradGradGradGradGradGradGradGradGradGradGradGradGradGradGradGradGradGrad
 Berny optimization.
 Using GEDIIS/GDIIS optimizer.
 FormGI is forming the generalized inverse of G from B-inverse, IUseBI=4.
 Internal  Forces:  Max     0.002814164 RMS     0.001354574
 Search for a local minimum.
 Step number   2 out of a maximum of   25
 All quantities printed in internal units (Hartrees-Bohrs-Radians)
 RMS Force = .13546D-02 SwitMx=.10000D-02 MixMth= 1
 Mixed Optimization -- RFO/linear search
 Update second derivatives using D2CorX and points    1    2
 DE= -1.62D-03 DEPred=-1.44D-03 R= 1.13D+00
 TightC=F SS=  1.41D+00  RLast= 9.69D-02 DXNew= 5.0454D-01 2.9072D-01
 Trust test= 1.13D+00 RLast= 9.69D-02 DXMaxT set to 3.00D-01
 The second derivative matrix:
                          R1        R2        R3        R4        R5
           R1           0.37712
           R2           0.00551   0.37853
           R3          -0.00053  -0.00131   0.53323
           R4           0.00482   0.00551  -0.00053   0.37712
           R5           0.00551   0.00623  -0.00131   0.00551   0.37853
           A1           0.01047   0.01043  -0.01484   0.01047   0.01043
           A2          -0.00539  -0.00539   0.00742  -0.00539  -0.00539
           A3          -0.00508  -0.00504   0.00742  -0.00508  -0.00504
           A4          -0.00539  -0.00539   0.00742  -0.00539  -0.00539
           A5          -0.00508  -0.00504   0.00742  -0.00508  -0.00504
           A6           0.01047   0.01043  -0.01484   0.01047   0.01043
           D1          -0.00000  -0.00000   0.00000  -0.00000  -0.00000
           D2           0.00000   0.00000  -0.00000   0.00000   0.00000
           D3          -0.00000  -0.00000   0.00000  -0.00000  -0.00000
           D4          -0.00000  -0.00000   0.00000  -0.00000  -0.00000
                          A1        A2        A3        A4        A5
           A1           0.15216
           A2           0.00355   0.15842
           A3           0.00429  -0.00196   0.15767
           A4           0.00355  -0.00158  -0.00196   0.15842
           A5           0.00429  -0.00196  -0.00233  -0.00196   0.15767
           A6          -0.00784   0.00355   0.00429   0.00355   0.00429
           D1           0.00000  -0.00000  -0.00000  -0.00000  -0.00000
           D2          -0.00000   0.00000   0.00000   0.00000   0.00000
           D3           0.00000  -0.00000  -0.00000  -0.00000  -0.00000
           D4           0.00000  -0.00000  -0.00000  -0.00000  -0.00000
                          A6        D1        D2        D3        D4
           A6           0.15216
           D1           0.00000   0.02681
           D2          -0.00000  -0.00000   0.02681
           D3           0.00000   0.00000  -0.00000   0.02681
           D4           0.00000   0.00000  -0.00000   0.00000   0.02681
 ITU=  1  0
 Use linear search instead of GDIIS.
     Eigenvalues ---    0.02681   0.02681   0.02681   0.12988   0.16000
     Eigenvalues ---    0.16000   0.16006   0.37225   0.37230   0.37230
     Eigenvalues ---    0.39922   0.53502
 RFO step:  Lambda=-1.34084152D-04 EMin= 2.68137388D-02
 Quartic linear search produced a step of  0.17430.
 Iteration  1 RMS(Cart)=  0.01085923 RMS(Int)=  0.00006862
 Iteration  2 RMS(Cart)=  0.00006931 RMS(Int)=  0.00000000
 Iteration  3 RMS(Cart)=  0.00000000 RMS(Int)=  0.00000000
 ITry= 1 IFail=0 DXMaxC= 2.10D-02 DCOld= 1.00D+10 DXMaxT= 3.00D-01 DXLimC= 3.00D+00 Rises=F
 ClnCor:  largest displacement from symmetrization is 4.89D-14 for atom     6.
 Variable       Old X    -DE/DX   Delta X   Delta X   Delta X     New X
                                 (Linear)    (Quad)   (Total)
    R1        2.05588   0.00049   0.00590  -0.00272   0.00319   2.05907
    R2        2.05626   0.00037   0.00597  -0.00315   0.00282   2.05907
    R3        2.53090  -0.00173  -0.00524   0.00005  -0.00519   2.52571
    R4        2.05588   0.00049   0.00590  -0.00272   0.00319   2.05907
    R5        2.05626   0.00037   0.00597  -0.00315   0.00282   2.05907
    A1        2.05675  -0.00281  -0.00622  -0.01626  -0.02247   2.03428
    A2        2.11342   0.00138   0.00263   0.00828   0.01091   2.12433
    A3        2.11301   0.00143   0.00359   0.00798   0.01157   2.12458
    A4        2.11342   0.00138   0.00263   0.00828   0.01091   2.12433
    A5        2.11301   0.00143   0.00359   0.00798   0.01157   2.12458
    A6        2.05675  -0.00281  -0.00622  -0.01626  -0.02247   2.03428
    D1        3.14159   0.00000   0.00000  -0.00000   0.00000   3.14159
    D2        0.00000   0.00000   0.00000  -0.00000   0.00000   0.00000
    D3        0.00000  -0.00000   0.00000   0.00000   0.00000   0.00000
    D4        3.14159   0.00000   0.00000  -0.00000   0.00000   3.14159
         Item               Value     Threshold  Converged?
 Maximum Force            0.002814     0.000015     NO 
 RMS     Force            0.001355     0.000010     NO 
 Maximum Displacement     0.021026     0.000060     NO 
 RMS     Displacement     0.010871     0.000040     NO 
 Predicted change in Energy=-9.987700D-05
 Lowest energy point so far.  Saving SCF results.
 GradGradGradGradGradGradGradGradGradGradGradGradGradGradGradGradGradGrad

 Leave Link  103 at Sat Feb  9 14:30:38 2019, MaxMem= 10737418240 cpu:               0.6 elap:               0.0
 (Enter /hpc/applications/gaussian/g16b/g16/l202.exe)
                          Input orientation:                          
 ---------------------------------------------------------------------
 Center     Atomic      Atomic             Coordinates (Angstroms)
 Number     Number       Type             X           Y           Z
 ---------------------------------------------------------------------
      1          6           0       -1.104519   -1.099413    0.000000
      2          1           0       -0.588050   -2.058847    0.000000
      3          1           0       -2.193632   -1.132464    0.000000
      4          6           0       -0.436423    0.058175    0.000000
      5          1           0       -0.952892    1.017608    0.000000
      6          1           0        0.652690    0.091225    0.000000
 ---------------------------------------------------------------------
                    Distance matrix (angstroms):
                    1          2          3          4          5
     1  C    0.000000
     2  H    1.089611   0.000000
     3  H    1.089615   1.853666   0.000000
     4  C    1.336548   2.122444   2.122594   0.000000
     5  H    2.122444   3.098012   2.482387   1.089611   0.000000
     6  H    2.122594   2.482387   3.098220   1.089615   1.853666
                    6
     6  H    0.000000
 Stoichiometry    C2H4
 Framework group  C2H[SGH(C2H4)]
 Deg. of freedom     5
 Full point group                 C2H     NOp   4
 RotChk:  IX=2 Diff= 3.10D-04
 Largest Abelian subgroup         C2H     NOp   4
 Largest concise Abelian subgroup C2      NOp   2
                         Standard orientation:                         
 ---------------------------------------------------------------------
 Center     Atomic      Atomic             Coordinates (Angstroms)
 Number     Number       Type             X           Y           Z
 ---------------------------------------------------------------------
      1          6           0       -0.000000    0.668274    0.000000
      2          1           0        0.926903    1.241076    0.000000
      3          1           0       -0.926763    1.241311    0.000000
      4          6           0        0.000000   -0.668274    0.000000
      5          1           0       -0.926903   -1.241076    0.000000
      6          1           0        0.926763   -1.241311    0.000000
 ---------------------------------------------------------------------
 Rotational constants (GHZ):         145.9382440          29.8535031          24.7836881
 Leave Link  202 at Sat Feb  9 14:30:38 2019, MaxMem= 10737418240 cpu:               0.6 elap:               0.0
 (Enter /hpc/applications/gaussian/g16b/g16/l301.exe)
 Standard basis: 6-31G(d,p) (6D, 7F)
 Ernie: Thresh=  0.10000D-02 Tol=  0.10000D-05 Strict=F.
 There are    19 symmetry adapted cartesian basis functions of AG  symmetry.
 There are     6 symmetry adapted cartesian basis functions of BG  symmetry.
 There are     6 symmetry adapted cartesian basis functions of AU  symmetry.
 There are    19 symmetry adapted cartesian basis functions of BU  symmetry.
 There are    19 symmetry adapted basis functions of AG  symmetry.
 There are     6 symmetry adapted basis functions of BG  symmetry.
 There are     6 symmetry adapted basis functions of AU  symmetry.
 There are    19 symmetry adapted basis functions of BU  symmetry.
    50 basis functions,    84 primitive gaussians,    50 cartesian basis functions
     8 alpha electrons        8 beta electrons
       nuclear repulsion energy        33.2316516688 Hartrees.
 IExCor= 2523 DFT=T Ex=TPSS Corr=TPSS ExCW=0 ScaHFX=  0.000000
 ScaDFX=  1.000000  1.000000  1.000000  1.000000 ScalE2=  1.000000  1.000000
 IRadAn=      5 IRanWt=     -1 IRanGd=            0 ICorTp=0 IEmpDi=  4
 NAtoms=    6 NActive=    6 NUniq=    3 SFac= 4.00D+00 NAtFMM=   60 NAOKFM=F Big=F
 Integral buffers will be    131072 words long.
 Raffenetti 2 integral format.
 Two-electron integral symmetry is turned on.
 Leave Link  301 at Sat Feb  9 14:30:38 2019, MaxMem= 10737418240 cpu:               1.7 elap:               0.1
 (Enter /hpc/applications/gaussian/g16b/g16/l302.exe)
 NPDir=0 NMtPBC=     1 NCelOv=     1 NCel=       1 NClECP=     1 NCelD=      1
         NCelK=      1 NCelE2=     1 NClLst=     1 CellRange=     0.0.
 One-electron integrals computed using PRISM.
 One-electron integral symmetry used in STVInt
 NBasis=    50 RedAO= T EigKep=  7.08D-03  NBF=    19     6     6    19
 NBsUse=    50 1.00D-06 EigRej= -1.00D+00 NBFU=    19     6     6    19
 Precomputing XC quadrature grid using
 IXCGrd= 4 IRadAn=           5 IRanWt=          -1 IRanGd=           0 AccXCQ= 0.00D+00.
 Generated NRdTot=       0 NPtTot=           0 NUsed=           0 NTot=          32
 NSgBfM=    50    50    50    50    50 MxSgAt=     6 MxSgA2=     6.
 Leave Link  302 at Sat Feb  9 14:30:38 2019, MaxMem= 10737418240 cpu:               4.3 elap:               0.1
 (Enter /hpc/applications/gaussian/g16b/g16/l303.exe)
 DipDrv:  MaxL=1.
 Leave Link  303 at Sat Feb  9 14:30:38 2019, MaxMem= 10737418240 cpu:               0.9 elap:               0.1
 (Enter /hpc/applications/gaussian/g16b/g16/l401.exe)
 Initial guess from the checkpoint file:  "ethene.chk"
 B after Tr=    -0.000000    0.000000    0.000000
         Rot=    1.000000    0.000000    0.000000    0.000077 Ang=   0.01 deg.
 Guess basis will be translated and rotated to current coordinates.
 JPrj=2 DoOrth=T DoCkMO=T.
 Initial guess orbital symmetries:
       Occupied  (AG) (BU) (AG) (BU) (BU) (AG) (AG) (AU)
       Virtual   (BG) (AG) (BU) (BU) (AG) (BU) (AG) (AU) (BU) (BG)
                 (AG) (BU) (BU) (AG) (BU) (AG) (BU) (AG) (AU) (BG)
                 (AU) (AG) (BU) (AG) (BU) (AG) (BG) (BU) (AU) (BG)
                 (BU) (BG) (AU) (AG) (AG) (BU) (AG) (BU) (BU) (AG)
                 (AG) (BU)
 The electronic state of the initial guess is 1-AG.
 Generating alternative initial guess.
 ExpMin= 1.61D-01 ExpMax= 3.05D+03 ExpMxC= 4.57D+02 IAcc=3 IRadAn=         5 AccDes= 0.00D+00
 Harris functional with IExCor= 1009 and IRadAn=       5 diagonalized for initial guess.
 HarFok:  IExCor= 1009 AccDes= 0.00D+00 IRadAn=         5 IDoV= 1 UseB2=F ITyADJ=14
 ICtDFT=  3500011 ScaDFX=  1.000000  1.000000  1.000000  1.000000
 FoFCou: FMM=F IPFlag=           0 FMFlag=      100000 FMFlg1=           0
         NFxFlg=           0 DoJE=T BraDBF=F KetDBF=T FulRan=T
         wScrn=  0.000000 ICntrl=       500 IOpCl=  0 I1Cent=   200000004 NGrid=           0
         NMat0=    1 NMatS0=      1 NMatT0=    0 NMatD0=    1 NMtDS0=    0 NMtDT0=    0
 Petite list used in FoFCou.
 Harris En= -78.5478520348049    
 Leave Link  401 at Sat Feb  9 14:30:39 2019, MaxMem= 10737418240 cpu:               7.4 elap:               0.2
 (Enter /hpc/applications/gaussian/g16b/g16/l502.exe)
 Keep J ints in memory in symmetry-blocked form, NReq=32262966.
 FoFCou: FMM=F IPFlag=           0 FMFlag=           0 FMFlg1=           0
         NFxFlg=           0 DoJE=F BraDBF=F KetDBF=F FulRan=T
         wScrn=  0.000000 ICntrl=       600 IOpCl=  0 I1Cent=           0 NGrid=           0
         NMat0=    1 NMatS0=   1275 NMatT0=    0 NMatD0=    1 NMtDS0=    0 NMtDT0=    0
 Petite list used in FoFCou.
 Closed shell SCF:
 Using DIIS extrapolation, IDIIS=  1040.
 NGot= 10737418240 LenX= 10737186390 LenY= 10737183449
 Requested convergence on RMS density matrix=1.00D-08 within 128 cycles.
 Requested convergence on MAX density matrix=1.00D-06.
 Requested convergence on             energy=1.00D-06.
 No special actions if energy rises.
 Integral accuracy reduced to 1.0D-05 until final iterations.

 Cycle   1  Pass 0  IDiag  1:
 E= -78.6044295424648    
 DIIS: error= 7.73D-04 at cycle   1 NSaved=   1.
 NSaved= 1 IEnMin= 1 EnMin= -78.6044295424648     IErMin= 1 ErrMin= 7.73D-04
 ErrMax= 7.73D-04  0.00D+00 EMaxC= 1.00D-01 BMatC= 1.36D-05 BMatP= 1.36D-05
 IDIUse=3 WtCom= 9.92D-01 WtEn= 7.73D-03
 Coeff-Com:  0.100D+01
 Coeff-En:   0.100D+01
 Coeff:      0.100D+01
 Gap=     0.224 Goal=   None    Shift=    0.000
 RMSDP=1.12D-04 MaxDP=9.12D-04              OVMax= 1.77D-03

 Cycle   2  Pass 0  IDiag  1:
 E= -78.6044494824123     Delta-E=       -0.000019939947 Rises=F Damp=F
 DIIS: error= 3.24D-05 at cycle   2 NSaved=   2.
 NSaved= 2 IEnMin= 2 EnMin= -78.6044494824123     IErMin= 2 ErrMin= 3.24D-05
 ErrMax= 3.24D-05  0.00D+00 EMaxC= 1.00D-01 BMatC= 3.28D-08 BMatP= 1.36D-05
 IDIUse=1 WtCom= 1.00D+00 WtEn= 0.00D+00
 Coeff-Com: -0.845D-02 0.101D+01
 Coeff:     -0.845D-02 0.101D+01
 Gap=     0.224 Goal=   None    Shift=    0.000
 RMSDP=1.11D-05 MaxDP=1.11D-04 DE=-1.99D-05 OVMax= 9.06D-05

 Cycle   3  Pass 0  IDiag  1:
 E= -78.6044495051097     Delta-E=       -0.000000022697 Rises=F Damp=F
 DIIS: error= 2.36D-05 at cycle   3 NSaved=   3.
 NSaved= 3 IEnMin= 3 EnMin= -78.6044495051097     IErMin= 3 ErrMin= 2.36D-05
 ErrMax= 2.36D-05  0.00D+00 EMaxC= 1.00D-01 BMatC= 1.62D-08 BMatP= 3.28D-08
 IDIUse=1 WtCom= 1.00D+00 WtEn= 0.00D+00
 Coeff-Com: -0.447D-02 0.397D+00 0.608D+00
 Coeff:     -0.447D-02 0.397D+00 0.608D+00
 Gap=     0.224 Goal=   None    Shift=    0.000
 RMSDP=3.59D-06 MaxDP=3.73D-05 DE=-2.27D-08 OVMax= 5.60D-05

 Initial convergence to 1.0D-05 achieved.  Increase integral accuracy.
 Cycle   4  Pass 1  IDiag  1:
 E= -78.6044493466742     Delta-E=        0.000000158435 Rises=F Damp=F
 DIIS: error= 7.72D-06 at cycle   1 NSaved=   1.
 NSaved= 1 IEnMin= 1 EnMin= -78.6044493466742     IErMin= 1 ErrMin= 7.72D-06
 ErrMax= 7.72D-06  0.00D+00 EMaxC= 1.00D-01 BMatC= 1.93D-09 BMatP= 1.93D-09
 IDIUse=1 WtCom= 1.00D+00 WtEn= 0.00D+00
 Coeff-Com:  0.100D+01
 Coeff:      0.100D+01
 Gap=     0.224 Goal=   None    Shift=    0.000
 RMSDP=3.59D-06 MaxDP=3.73D-05 DE= 1.58D-07 OVMax= 2.78D-05

 Cycle   5  Pass 1  IDiag  1:
 E= -78.6044493460002     Delta-E=        0.000000000674 Rises=F Damp=F
 DIIS: error= 8.56D-06 at cycle   2 NSaved=   2.
 NSaved= 2 IEnMin= 1 EnMin= -78.6044493466742     IErMin= 1 ErrMin= 7.72D-06
 ErrMax= 8.56D-06  0.00D+00 EMaxC= 1.00D-01 BMatC= 2.41D-09 BMatP= 1.93D-09
 IDIUse=1 WtCom= 1.00D+00 WtEn= 0.00D+00
 Coeff-Com:  0.528D+00 0.472D+00
 Coeff:      0.528D+00 0.472D+00
 Gap=     0.224 Goal=   None    Shift=    0.000
 RMSDP=9.77D-07 MaxDP=1.08D-05 DE= 6.74D-10 OVMax= 1.57D-05

 Cycle   6  Pass 1  IDiag  1:
 E= -78.6044493486202     Delta-E=       -0.000000002620 Rises=F Damp=F
 DIIS: error= 2.98D-07 at cycle   3 NSaved=   3.
 NSaved= 3 IEnMin= 3 EnMin= -78.6044493486202     IErMin= 3 ErrMin= 2.98D-07
 ErrMax= 2.98D-07  0.00D+00 EMaxC= 1.00D-01 BMatC= 2.51D-12 BMatP= 1.93D-09
 IDIUse=1 WtCom= 1.00D+00 WtEn= 0.00D+00
 Coeff-Com:  0.600D-02 0.349D-01 0.959D+00
 Coeff:      0.600D-02 0.349D-01 0.959D+00
 Gap=     0.224 Goal=   None    Shift=    0.000
 RMSDP=3.70D-08 MaxDP=3.69D-07 DE=-2.62D-09 OVMax= 5.72D-07

 Cycle   7  Pass 1  IDiag  1:
 E= -78.6044493486229     Delta-E=       -0.000000000003 Rises=F Damp=F
 DIIS: error= 1.02D-08 at cycle   4 NSaved=   4.
 NSaved= 4 IEnMin= 4 EnMin= -78.6044493486229     IErMin= 4 ErrMin= 1.02D-08
 ErrMax= 1.02D-08  0.00D+00 EMaxC= 1.00D-01 BMatC= 5.00D-15 BMatP= 2.51D-12
 IDIUse=1 WtCom= 1.00D+00 WtEn= 0.00D+00
 Coeff-Com: -0.308D-02-0.112D-02 0.761D-01 0.928D+00
 Coeff:     -0.308D-02-0.112D-02 0.761D-01 0.928D+00
 Gap=     0.224 Goal=   None    Shift=    0.000
 RMSDP=2.82D-09 MaxDP=2.67D-08 DE=-2.73D-12 OVMax= 2.61D-08

 SCF Done:  E(RTPSS-TPSS) =  -78.6044493486     A.U. after    7 cycles
            NFock=  7  Conv=0.28D-08     -V/T= 2.0091
 KE= 7.789594790767D+01 PE=-2.480016421243D+02 EE= 5.826959319913D+01
 Leave Link  502 at Sat Feb  9 14:30:39 2019, MaxMem= 10737418240 cpu:               8.8 elap:               0.3
 (Enter /hpc/applications/gaussian/g16b/g16/l701.exe)
 ... and contract with generalized density number  0.
 Compute integral first derivatives.
 Leave Link  701 at Sat Feb  9 14:30:39 2019, MaxMem= 10737418240 cpu:               4.3 elap:               0.2
 (Enter /hpc/applications/gaussian/g16b/g16/l702.exe)
 L702 exits ... SP integral derivatives will be done elsewhere.
 Leave Link  702 at Sat Feb  9 14:30:39 2019, MaxMem= 10737418240 cpu:               0.8 elap:               0.0
 (Enter /hpc/applications/gaussian/g16b/g16/l703.exe)
 Integral derivatives from FoFJK, PRISM(SPDF).
 Compute integral first derivatives, UseDBF=F ICtDFT=           0.
 Calling FoFJK, ICntrl=      2527 FMM=F ISym2X=1 I1Cent= 0 IOpClX= 0 NMat=1 NMatS=1 NMatT=0.
 FoFJK:  IHMeth= 1 ICntrl=    2527 DoSepK=F KAlg= 0 I1Cent=           0 FoldK=F
 IRaf=         0 NMat=       1 IRICut=       1 DoRegI=T DoRafI=F ISym2E= 1 IDoP0=0 IntGTp=1.
 FoFCou: FMM=F IPFlag=           0 FMFlag=      100000 FMFlg1=         800
         NFxFlg=           0 DoJE=F BraDBF=F KetDBF=F FulRan=T
         wScrn=  0.000000 ICntrl=      2527 IOpCl=  0 I1Cent=           0 NGrid=           0
         NMat0=    1 NMatS0=      1 NMatT0=    0 NMatD0=    1 NMtDS0=    0 NMtDT0=    0
 Petite list used in FoFCou.
 Leave Link  703 at Sat Feb  9 14:30:39 2019, MaxMem= 10737418240 cpu:               7.5 elap:               0.2
 (Enter /hpc/applications/gaussian/g16b/g16/l716.exe)
 Dipole        =-6.66133815D-16 4.44089210D-16 0.00000000D+00
 ***** Axes restored to original set *****
 -------------------------------------------------------------------
 Center     Atomic                   Forces (Hartrees/Bohr)
 Number     Number              X              Y              Z
 -------------------------------------------------------------------
      1        6           0.000089928    0.000093910   -0.000000000
      2        1          -0.000450311    0.000211241    0.000000000
      3        1           0.000416487   -0.000266060   -0.000000000
      4        6          -0.000089928   -0.000093910    0.000000000
      5        1           0.000450311   -0.000211241   -0.000000000
      6        1          -0.000416487    0.000266060   -0.000000000
 -------------------------------------------------------------------
 Cartesian Forces:  Max     0.000450311 RMS     0.000237711
 Leave Link  716 at Sat Feb  9 14:30:39 2019, MaxMem= 10737418240 cpu:               0.8 elap:               0.0
 (Enter /hpc/applications/gaussian/g16b/g16/l103.exe)

 GradGradGradGradGradGradGradGradGradGradGradGradGradGradGradGradGradGrad
 Berny optimization.
 Using GEDIIS/GDIIS optimizer.
 FormGI is forming the generalized inverse of G from B-inverse, IUseBI=4.
 Internal  Forces:  Max     0.000408225 RMS     0.000273834
 Search for a local minimum.
 Step number   3 out of a maximum of   25
 All quantities printed in internal units (Hartrees-Bohrs-Radians)
 RMS Force = .27383D-03 SwitMx=.10000D-02 MixMth= 2
 Mixed Optimization -- En-DIIS/RFO-DIIS
 Update second derivatives using D2CorX and points    1    2    3
 DE= -1.13D-04 DEPred=-9.99D-05 R= 1.13D+00
 TightC=F SS=  1.41D+00  RLast= 3.97D-02 DXNew= 5.0454D-01 1.1919D-01
 Trust test= 1.13D+00 RLast= 3.97D-02 DXMaxT set to 3.00D-01
 The second derivative matrix:
                          R1        R2        R3        R4        R5
           R1           0.38310
           R2           0.01130   0.38413
           R3          -0.00609  -0.00686   0.53443
           R4           0.01080   0.01130  -0.00609   0.38310
           R5           0.01130   0.01183  -0.00686   0.01130   0.38413
           A1           0.00677   0.00657  -0.01750   0.00677   0.00657
           A2          -0.00379  -0.00370   0.00898  -0.00379  -0.00370
           A3          -0.00298  -0.00287   0.00852  -0.00298  -0.00287
           A4          -0.00379  -0.00370   0.00898  -0.00379  -0.00370
           A5          -0.00298  -0.00287   0.00852  -0.00298  -0.00287
           A6           0.00677   0.00657  -0.01750   0.00677   0.00657
           D1          -0.00000  -0.00000   0.00000  -0.00000  -0.00000
           D2           0.00000   0.00000  -0.00000   0.00000   0.00000
           D3          -0.00000  -0.00000   0.00000  -0.00000  -0.00000
           D4          -0.00000  -0.00000  -0.00000  -0.00000  -0.00000
                          A1        A2        A3        A4        A5
           A1           0.14510
           A2           0.00723   0.15651
           A3           0.00767  -0.00374   0.15607
           A4           0.00723  -0.00349  -0.00374   0.15651
           A5           0.00767  -0.00374  -0.00393  -0.00374   0.15607
           A6          -0.01490   0.00723   0.00767   0.00723   0.00767
           D1          -0.00000   0.00000   0.00000   0.00000   0.00000
           D2           0.00000  -0.00000  -0.00000  -0.00000  -0.00000
           D3          -0.00000   0.00000   0.00000   0.00000   0.00000
           D4          -0.00000   0.00000   0.00000   0.00000   0.00000
                          A6        D1        D2        D3        D4
           A6           0.14510
           D1          -0.00000   0.02681
           D2           0.00000  -0.00000   0.02681
           D3          -0.00000   0.00000  -0.00000   0.02681
           D4          -0.00000   0.00000  -0.00000   0.00000   0.02681
 ITU=  1  1  0
 Use linear search instead of GDIIS.
     Eigenvalues ---    0.02681   0.02681   0.02681   0.11150   0.16000
     Eigenvalues ---    0.16000   0.16006   0.37230   0.37230   0.37230
     Eigenvalues ---    0.41739   0.53839
 RFO step:  Lambda=-2.59187561D-06 EMin= 2.68137388D-02
 Quartic linear search produced a step of  0.12073.
 Iteration  1 RMS(Cart)=  0.00171958 RMS(Int)=  0.00000155
 Iteration  2 RMS(Cart)=  0.00000158 RMS(Int)=  0.00000000
 Iteration  3 RMS(Cart)=  0.00000000 RMS(Int)=  0.00000000
 ITry= 1 IFail=0 DXMaxC= 3.26D-03 DCOld= 1.00D+10 DXMaxT= 3.00D-01 DXLimC= 3.00D+00 Rises=F
 ClnCor:  largest displacement from symmetrization is 8.16D-14 for atom     6.
 Variable       Old X    -DE/DX   Delta X   Delta X   Delta X     New X
                                 (Linear)    (Quad)   (Total)
    R1        2.05907  -0.00040   0.00038  -0.00119  -0.00080   2.05826
    R2        2.05907  -0.00041   0.00034  -0.00117  -0.00083   2.05824
    R3        2.52571  -0.00006  -0.00063   0.00015  -0.00048   2.52523
    R4        2.05907  -0.00040   0.00038  -0.00119  -0.00080   2.05826
    R5        2.05907  -0.00041   0.00034  -0.00117  -0.00083   2.05824
    A1        2.03428  -0.00039  -0.00271  -0.00058  -0.00329   2.03099
    A2        2.12433   0.00022   0.00132   0.00042   0.00174   2.12607
    A3        2.12458   0.00018   0.00140   0.00016   0.00155   2.12613
    A4        2.12433   0.00022   0.00132   0.00042   0.00174   2.12607
    A5        2.12458   0.00018   0.00140   0.00016   0.00155   2.12613
    A6        2.03428  -0.00039  -0.00271  -0.00058  -0.00329   2.03099
    D1        3.14159  -0.00000   0.00000  -0.00000   0.00000   3.14159
    D2        0.00000  -0.00000   0.00000  -0.00000   0.00000   0.00000
    D3        0.00000   0.00000   0.00000  -0.00000   0.00000   0.00000
    D4        3.14159  -0.00000   0.00000  -0.00000   0.00000   3.14159
         Item               Value     Threshold  Converged?
 Maximum Force            0.000408     0.000015     NO 
 RMS     Force            0.000274     0.000010     NO 
 Maximum Displacement     0.003259     0.000060     NO 
 RMS     Displacement     0.001720     0.000040     NO 
 Predicted change in Energy=-2.634526D-06
 Lowest energy point so far.  Saving SCF results.
 GradGradGradGradGradGradGradGradGradGradGradGradGradGradGradGradGradGrad

 Leave Link  103 at Sat Feb  9 14:30:40 2019, MaxMem= 10737418240 cpu:               0.8 elap:               0.1
 (Enter /hpc/applications/gaussian/g16b/g16/l202.exe)
                          Input orientation:                          
 ---------------------------------------------------------------------
 Center     Atomic      Atomic             Coordinates (Angstroms)
 Number     Number       Type             X           Y           Z
 ---------------------------------------------------------------------
      1          6           0       -1.104424   -1.099322    0.000000
      2          1           0       -0.589775   -2.059249    0.000000
      3          1           0       -2.193044   -1.134110    0.000000
      4          6           0       -0.436518    0.058083    0.000000
      5          1           0       -0.951167    1.018011    0.000000
      6          1           0        0.652102    0.092871    0.000000
 ---------------------------------------------------------------------
                    Distance matrix (angstroms):
                    1          2          3          4          5
     1  C    0.000000
     2  H    1.089185   0.000000
     3  H    1.089176   1.851041   0.000000
     4  C    1.336295   2.122872   2.122901   0.000000
     5  H    2.122872   3.098408   2.484730   1.089185   0.000000
     6  H    2.122901   2.484730   3.098442   1.089176   1.851041
                    6
     6  H    0.000000
 Stoichiometry    C2H4
 Framework group  C2H[SGH(C2H4)]
 Deg. of freedom     5
 Full point group                 C2H     NOp   4
 RotChk:  IX=0 Diff= 7.69D-05
 Largest Abelian subgroup         C2H     NOp   4
 Largest concise Abelian subgroup C2      NOp   2
                         Standard orientation:                         
 ---------------------------------------------------------------------
 Center     Atomic      Atomic             Coordinates (Angstroms)
 Number     Number       Type             X           Y           Z
 ---------------------------------------------------------------------
      1          6           0       -0.000000    0.668147    0.000000
      2          1           0        0.925543    1.242338    0.000000
      3          1           0       -0.925498    1.242392    0.000000
      4          6           0       -0.000000   -0.668147   -0.000000
      5          1           0       -0.925543   -1.242338    0.000000
      6          1           0        0.925498   -1.242392   -0.000000
 ---------------------------------------------------------------------
 Rotational constants (GHZ):         146.3523768          29.8399910          24.7862814
 Leave Link  202 at Sat Feb  9 14:30:40 2019, MaxMem= 10737418240 cpu:               0.4 elap:               0.0
 (Enter /hpc/applications/gaussian/g16b/g16/l301.exe)
 Standard basis: 6-31G(d,p) (6D, 7F)
 Ernie: Thresh=  0.10000D-02 Tol=  0.10000D-05 Strict=F.
 There are    19 symmetry adapted cartesian basis functions of AG  symmetry.
 There are     6 symmetry adapted cartesian basis functions of BG  symmetry.
 There are     6 symmetry adapted cartesian basis functions of AU  symmetry.
 There are    19 symmetry adapted cartesian basis functions of BU  symmetry.
 There are    19 symmetry adapted basis functions of AG  symmetry.
 There are     6 symmetry adapted basis functions of BG  symmetry.
 There are     6 symmetry adapted basis functions of AU  symmetry.
 There are    19 symmetry adapted basis functions of BU  symmetry.
    50 basis functions,    84 primitive gaussians,    50 cartesian basis functions
     8 alpha electrons        8 beta electrons
       nuclear repulsion energy        33.2383166415 Hartrees.
 IExCor= 2523 DFT=T Ex=TPSS Corr=TPSS ExCW=0 ScaHFX=  0.000000
 ScaDFX=  1.000000  1.000000  1.000000  1.000000 ScalE2=  1.000000  1.000000
 IRadAn=      5 IRanWt=     -1 IRanGd=            0 ICorTp=0 IEmpDi=  4
 NAtoms=    6 NActive=    6 NUniq=    3 SFac= 4.00D+00 NAtFMM=   60 NAOKFM=F Big=F
 Integral buffers will be    131072 words long.
 Raffenetti 2 integral format.
 Two-electron integral symmetry is turned on.
 Leave Link  301 at Sat Feb  9 14:30:40 2019, MaxMem= 10737418240 cpu:               1.6 elap:               0.1
 (Enter /hpc/applications/gaussian/g16b/g16/l302.exe)
 NPDir=0 NMtPBC=     1 NCelOv=     1 NCel=       1 NClECP=     1 NCelD=      1
         NCelK=      1 NCelE2=     1 NClLst=     1 CellRange=     0.0.
 One-electron integrals computed using PRISM.
 One-electron integral symmetry used in STVInt
 NBasis=    50 RedAO= T EigKep=  7.08D-03  NBF=    19     6     6    19
 NBsUse=    50 1.00D-06 EigRej= -1.00D+00 NBFU=    19     6     6    19
 Precomputing XC quadrature grid using
 IXCGrd= 4 IRadAn=           5 IRanWt=          -1 IRanGd=           0 AccXCQ= 0.00D+00.
 Generated NRdTot=       0 NPtTot=           0 NUsed=           0 NTot=          32
 NSgBfM=    50    50    50    50    50 MxSgAt=     6 MxSgA2=     6.
 Leave Link  302 at Sat Feb  9 14:30:40 2019, MaxMem= 10737418240 cpu:               5.5 elap:               0.2
 (Enter /hpc/applications/gaussian/g16b/g16/l303.exe)
 DipDrv:  MaxL=1.
 Leave Link  303 at Sat Feb  9 14:30:40 2019, MaxMem= 10737418240 cpu:               0.9 elap:               0.1
 (Enter /hpc/applications/gaussian/g16b/g16/l401.exe)
 Initial guess from the checkpoint file:  "ethene.chk"
 B after Tr=    -0.000000   -0.000000    0.000000
         Rot=    1.000000    0.000000   -0.000000   -0.000019 Ang=  -0.00 deg.
 Guess basis will be translated and rotated to current coordinates.
 JPrj=2 DoOrth=T DoCkMO=T.
 Initial guess orbital symmetries:
       Occupied  (AG) (BU) (AG) (BU) (BU) (AG) (AG) (AU)
       Virtual   (BG) (AG) (BU) (BU) (AG) (BU) (AG) (AU) (BU) (BG)
                 (AG) (BU) (BU) (AG) (BU) (AG) (BU) (AG) (AU) (BG)
                 (AU) (AG) (BU) (AG) (BU) (AG) (BG) (BU) (AU) (BG)
                 (BU) (BG) (AU) (AG) (AG) (BU) (AG) (BU) (BU) (AG)
                 (AG) (BU)
 The electronic state of the initial guess is 1-AG.
 Leave Link  401 at Sat Feb  9 14:30:40 2019, MaxMem= 10737418240 cpu:               4.1 elap:               0.1
 (Enter /hpc/applications/gaussian/g16b/g16/l502.exe)
 Keep J ints in memory in symmetry-blocked form, NReq=32262966.
 FoFCou: FMM=F IPFlag=           0 FMFlag=           0 FMFlg1=           0
         NFxFlg=           0 DoJE=F BraDBF=F KetDBF=F FulRan=T
         wScrn=  0.000000 ICntrl=       600 IOpCl=  0 I1Cent=           0 NGrid=           0
         NMat0=    1 NMatS0=   1275 NMatT0=    0 NMatD0=    1 NMtDS0=    0 NMtDT0=    0
 Petite list used in FoFCou.
 Closed shell SCF:
 Using DIIS extrapolation, IDIIS=  1040.
 NGot= 10737418240 LenX= 10737186390 LenY= 10737183449
 Requested convergence on RMS density matrix=1.00D-08 within 128 cycles.
[...]
 
     X    X                                                               X                   X     X                                
     X    X                                                                                   X                                      
     X    X                                                                                   X                                      
     X    X                                                                                   X                                      
     X    X                                                                                   X                                      
     X    X                                                                                   X                                      
     X                                                                                        X                                      
     X                                                                                        X                                      
     X                                                                                        X                                      
     X                                                                                        X                                      
                                                                                              X                                      
                                                                                              X                                      
                                                                                              X                                      
                                                                                              X                                      
                                                                                              X                                      
                                                                                              X                                      
                                                                                              X                                      
                                                                                              X                                      
                                                                                              X                                      
                                                                                              X                                      
 
 ***** Axes restored to original set *****
 -------------------------------------------------------------------
 Center     Atomic                   Forces (Hartrees/Bohr)
 Number     Number              X              Y              Z
 -------------------------------------------------------------------
      1        6          -0.000000107   -0.000003931   -0.000000000
      2        1          -0.000001252    0.000003920    0.000000000
      3        1           0.000002960    0.000001299    0.000000000
      4        6           0.000000107    0.000003931    0.000000000
      5        1           0.000001252   -0.000003920   -0.000000000
      6        1          -0.000002960   -0.000001299   -0.000000000
 -------------------------------------------------------------------
 Cartesian Forces:  Max     0.000003931 RMS     0.000002182
 Force constants in Cartesian coordinates: 
                1             2             3             4             5 
      1  0.681967D+00
      2  0.968779D-01  0.793943D+00
      3  0.000000D+00  0.000000D+00  0.103348D+00
      4 -0.123547D+00  0.119302D+00  0.000000D+00  0.121684D+00
      5  0.115686D+00 -0.266591D+00  0.000000D+00 -0.125409D+00  0.285419D+00
      6  0.000000D+00  0.000000D+00 -0.348635D-01  0.000000D+00  0.000000D+00
      7 -0.332584D+00 -0.512812D-02  0.000000D+00 -0.999746D-02 -0.277137D-02
      8 -0.151167D-02 -0.575575D-01  0.000000D+00  0.256301D-01  0.321398D-02
      9  0.000000D+00  0.000000D+00 -0.348628D-01  0.000000D+00  0.000000D+00
     10 -0.224614D+00 -0.197029D+00  0.000000D+00  0.112439D-01  0.160950D-01
     11 -0.197029D+00 -0.452361D+00  0.000000D+00 -0.164148D-01 -0.205716D-01
     12  0.000000D+00  0.000000D+00 -0.421473D-01  0.000000D+00  0.000000D+00
     13  0.112439D-01 -0.164148D-01  0.000000D+00 -0.753482D-03 -0.339540D-02
     14  0.160950D-01 -0.205716D-01  0.000000D+00 -0.339540D-02 -0.288717D-02
     15  0.000000D+00  0.000000D+00  0.426296D-02  0.000000D+00  0.000000D+00
     16 -0.124662D-01  0.239138D-02  0.000000D+00  0.136974D-02 -0.204641D-03
     17 -0.301183D-01  0.313894D-02  0.000000D+00  0.287101D-03  0.141742D-02
     18  0.000000D+00  0.000000D+00  0.426281D-02  0.000000D+00  0.000000D+00
                6             7             8             9            10 
      6  0.236851D-01
      7  0.000000D+00  0.353089D+00
      8  0.000000D+00  0.833210D-02  0.540169D-01
      9  0.213679D-02  0.000000D+00  0.000000D+00  0.236846D-01
     10  0.000000D+00 -0.124662D-01 -0.301183D-01  0.000000D+00  0.681967D+00
     11  0.000000D+00  0.239138D-02  0.313894D-02  0.000000D+00  0.968779D-01
     12  0.426296D-02  0.000000D+00  0.000000D+00  0.426281D-02  0.000000D+00
     13  0.000000D+00  0.136974D-02  0.287101D-03  0.000000D+00 -0.123547D+00
     14  0.000000D+00 -0.204641D-03  0.141742D-02  0.000000D+00  0.115686D+00
     15  0.131617D-01  0.000000D+00  0.000000D+00 -0.838305D-02  0.000000D+00
     16  0.000000D+00  0.589171D-03 -0.261935D-02  0.000000D+00 -0.332584D+00
     17  0.000000D+00 -0.261935D-02 -0.422978D-02  0.000000D+00 -0.151167D-02
     18 -0.838305D-02  0.000000D+00  0.000000D+00  0.131617D-01  0.000000D+00
               11            12            13            14            15 
     11  0.793943D+00
     12  0.000000D+00  0.103348D+00
     13  0.119302D+00  0.000000D+00  0.121684D+00
     14 -0.266591D+00  0.000000D+00 -0.125409D+00  0.285419D+00
     15  0.000000D+00 -0.348635D-01  0.000000D+00  0.000000D+00  0.236851D-01
     16 -0.512812D-02  0.000000D+00 -0.999746D-02 -0.277137D-02  0.000000D+00
     17 -0.575575D-01  0.000000D+00  0.256301D-01  0.321398D-02  0.000000D+00
     18  0.000000D+00 -0.348628D-01  0.000000D+00  0.000000D+00  0.213679D-02
               16            17            18 
     16  0.353089D+00
     17  0.833210D-02  0.540169D-01
     18  0.000000D+00  0.000000D+00  0.236846D-01
 FormGI is forming the generalized inverse of G from B-inverse, IUseBI=4.
 Force constants in internal coordinates: 
                1             2             3             4             5 
      1  0.353311D+00
      2  0.198300D-02  0.353315D+00
      3  0.613345D-02  0.613322D-02  0.624811D+00
      4 -0.416970D-03  0.791680D-03  0.613345D-02  0.353311D+00
      5  0.791680D-03 -0.416976D-03  0.613322D-02  0.198300D-02  0.353315D+00
      6  0.726574D-02  0.726571D-02 -0.216066D-01 -0.111724D-02 -0.111722D-02
      7  0.469950D-02 -0.119651D-01  0.108034D-01  0.457959D-02 -0.346229D-02
      8 -0.119652D-01  0.469941D-02  0.108032D-01 -0.346235D-02  0.457951D-02
      9  0.457959D-02 -0.346229D-02  0.108034D-01  0.469950D-02 -0.119651D-01
     10 -0.346235D-02  0.457951D-02  0.108032D-01 -0.119652D-01  0.469941D-02
     11 -0.111724D-02 -0.111722D-02 -0.216066D-01  0.726574D-02  0.726571D-02
     12  0.000000D+00  0.000000D+00  0.000000D+00  0.000000D+00  0.000000D+00
     13  0.000000D+00  0.000000D+00  0.000000D+00  0.000000D+00  0.000000D+00
     14  0.000000D+00  0.000000D+00  0.000000D+00  0.000000D+00  0.000000D+00
     15  0.000000D+00  0.000000D+00  0.000000D+00  0.000000D+00  0.000000D+00
                6             7             8             9            10 
      6  0.736114D-01
      7 -0.368059D-01  0.806078D-01
      8 -0.368055D-01 -0.438019D-01  0.806074D-01
      9 -0.149220D-02  0.112237D-01 -0.973147D-02  0.806078D-01
     10 -0.149212D-02 -0.973147D-02  0.112236D-01 -0.438019D-01  0.806074D-01
     11  0.298431D-02 -0.149220D-02 -0.149212D-02 -0.368059D-01 -0.368055D-01
     12  0.000000D+00  0.000000D+00  0.000000D+00  0.000000D+00  0.000000D+00
     13  0.000000D+00  0.000000D+00  0.000000D+00  0.000000D+00  0.000000D+00
     14  0.000000D+00  0.000000D+00  0.000000D+00  0.000000D+00  0.000000D+00
     15  0.000000D+00  0.000000D+00  0.000000D+00  0.000000D+00  0.000000D+00
               11            12            13            14            15 
     11  0.736114D-01
     12  0.000000D+00  0.316288D-01
     13  0.000000D+00  0.823606D-02  0.243222D-01
     14  0.000000D+00  0.823606D-02 -0.785023D-02  0.243222D-01
     15  0.000000D+00 -0.151567D-01  0.823594D-02  0.823594D-02  0.316286D-01
 Leave Link  716 at Sat Feb  9 14:30:46 2019, MaxMem= 10737418240 cpu:               1.4 elap:               0.1
 (Enter /hpc/applications/gaussian/g16b/g16/l103.exe)

 GradGradGradGradGradGradGradGradGradGradGradGradGradGradGradGradGradGrad
 Berny optimization.
 Red2BG is reusing G-inverse.
 Internal  Forces:  Max     0.000004047 RMS     0.000002012
 Search for a local minimum.
 Step number   1 out of a maximum of    2
 All quantities printed in internal units (Hartrees-Bohrs-Radians)
 Second derivative matrix not updated -- analytic derivatives used.
 The second derivative matrix:
                          R1        R2        R3        R4        R5
           R1           0.35331
           R2           0.00198   0.35332
           R3           0.00613   0.00613   0.62481
           R4          -0.00042   0.00079   0.00613   0.35331
           R5           0.00079  -0.00042   0.00613   0.00198   0.35332
           A1           0.00727   0.00727  -0.02161  -0.00112  -0.00112
           A2           0.00470  -0.01197   0.01080   0.00458  -0.00346
           A3          -0.01197   0.00470   0.01080  -0.00346   0.00458
           A4           0.00458  -0.00346   0.01080   0.00470  -0.01197
           A5          -0.00346   0.00458   0.01080  -0.01197   0.00470
           A6          -0.00112  -0.00112  -0.02161   0.00727   0.00727
           D1           0.00000   0.00000   0.00000   0.00000  -0.00000
           D2           0.00000  -0.00000   0.00000  -0.00000  -0.00000
           D3           0.00000   0.00000   0.00000   0.00000   0.00000
           D4           0.00000   0.00000   0.00000   0.00000   0.00000
                          A1        A2        A3        A4        A5
           A1           0.07361
           A2          -0.03681   0.08061
           A3          -0.03681  -0.04380   0.08061
           A4          -0.00149   0.01122  -0.00973   0.08061
           A5          -0.00149  -0.00973   0.01122  -0.04380   0.08061
           A6           0.00298  -0.00149  -0.00149  -0.03681  -0.03681
           D1          -0.00000   0.00000   0.00000   0.00000   0.00000
           D2          -0.00000   0.00000   0.00000   0.00000   0.00000
           D3          -0.00000   0.00000   0.00000   0.00000   0.00000
           D4          -0.00000   0.00000   0.00000   0.00000   0.00000
                          A6        D1        D2        D3        D4
           A6           0.07361
           D1          -0.00000   0.03163
           D2          -0.00000   0.00824   0.02432
           D3          -0.00000   0.00824  -0.00785   0.02432
           D4          -0.00000  -0.01516   0.00824   0.00824   0.03163
 ITU=  0
     Eigenvalues ---    0.03217   0.03294   0.04679   0.10316   0.10510
     Eigenvalues ---    0.11162   0.14243   0.35284   0.35306   0.35573
     Eigenvalues ---    0.35577   0.62803
 Angle between quadratic step and forces=  30.41 degrees.
 Linear search not attempted -- first point.
 Iteration  1 RMS(Cart)=  0.00000892 RMS(Int)=  0.00000000
 Iteration  2 RMS(Cart)=  0.00000000 RMS(Int)=  0.00000000
 ITry= 1 IFail=0 DXMaxC= 1.48D-05 DCOld= 1.00D+10 DXMaxT= 3.00D-01 DXLimC= 3.00D+00 Rises=F
 ClnCor:  largest displacement from symmetrization is 2.72D-14 for atom     5.
 Variable       Old X    -DE/DX   Delta X   Delta X   Delta X     New X
                                 (Linear)    (Quad)   (Total)
    R1        2.05804  -0.00000   0.00000  -0.00001  -0.00001   2.05803
    R2        2.05804  -0.00000   0.00000  -0.00001  -0.00001   2.05803
    R3        2.52530  -0.00000   0.00000  -0.00000  -0.00000   2.52530
    R4        2.05804  -0.00000   0.00000  -0.00001  -0.00001   2.05803
    R5        2.05804  -0.00000   0.00000  -0.00001  -0.00001   2.05803
    A1        2.03086   0.00000   0.00000   0.00001   0.00001   2.03088
    A2        2.12616  -0.00000   0.00000  -0.00000  -0.00000   2.12615
    A3        2.12616  -0.00000   0.00000  -0.00001  -0.00001   2.12615
    A4        2.12616  -0.00000   0.00000  -0.00000  -0.00000   2.12615
    A5        2.12616  -0.00000   0.00000  -0.00001  -0.00001   2.12615
    A6        2.03086   0.00000   0.00000   0.00001   0.00001   2.03088
    D1        3.14159  -0.00000   0.00000   0.00000   0.00000   3.14159
    D2       -0.00000   0.00000   0.00000  -0.00000   0.00000   0.00000
    D3        0.00000   0.00000   0.00000   0.00000   0.00000   0.00000
    D4        3.14159  -0.00000   0.00000   0.00000   0.00000   3.14159
         Item               Value     Threshold  Converged?
 Maximum Force            0.000004     0.000015     YES
 RMS     Force            0.000002     0.000010     YES
 Maximum Displacement     0.000015     0.000060     YES
 RMS     Displacement     0.000009     0.000040     YES
 Predicted change in Energy=-1.034773D-10
 Optimization completed.
    -- Stationary point found.
                           ----------------------------
                           !   Optimized Parameters   !
                           ! (Angstroms and Degrees)  !
 --------------------------                            --------------------------
 ! Name  Definition              Value          Derivative Info.                !
 --------------------------------------------------------------------------------
 ! R1    R(1,2)                  1.0891         -DE/DX =    0.0                 !
 ! R2    R(1,3)                  1.0891         -DE/DX =    0.0                 !
 ! R3    R(1,4)                  1.3363         -DE/DX =    0.0                 !
 ! R4    R(4,5)                  1.0891         -DE/DX =    0.0                 !
 ! R5    R(4,6)                  1.0891         -DE/DX =    0.0                 !
 ! A1    A(2,1,3)              116.3599         -DE/DX =    0.0                 !
 ! A2    A(2,1,4)              121.8198         -DE/DX =    0.0                 !
 ! A3    A(3,1,4)              121.8203         -DE/DX =    0.0                 !
 ! A4    A(1,4,5)              121.8198         -DE/DX =    0.0                 !
 ! A5    A(1,4,6)              121.8203         -DE/DX =    0.0                 !
 ! A6    A(5,4,6)              116.3599         -DE/DX =    0.0                 !
 ! D1    D(2,1,4,5)            180.0            -DE/DX =    0.0                 !
 ! D2    D(2,1,4,6)              0.0            -DE/DX =    0.0                 !
 ! D3    D(3,1,4,5)              0.0            -DE/DX =    0.0                 !
 ! D4    D(3,1,4,6)            180.0            -DE/DX =    0.0                 !
 --------------------------------------------------------------------------------
 GradGradGradGradGradGradGradGradGradGradGradGradGradGradGradGradGradGrad

 Leave Link  103 at Sat Feb  9 14:30:46 2019, MaxMem= 10737418240 cpu:               1.6 elap:               0.1
 (Enter /hpc/applications/gaussian/g16b/g16/l9999.exe)
 Dipole is zero, so no output in dipole orientation.

 ----------------------------------------------------------------------

 Electric dipole moment (input orientation):
 (Debye = 10**-18 statcoulomb cm , SI units = C m)
                  (au)            (Debye)         (10**-30 SI)
   Tot        0.000000D+00      0.000000D+00      0.000000D+00
   x          0.000000D+00      0.000000D+00      0.000000D+00
   y          0.000000D+00      0.000000D+00      0.000000D+00
   z          0.000000D+00      0.000000D+00      0.000000D+00

 Dipole polarizability, Alpha (input orientation).
 (esu units = cm**3 , SI units = C**2 m**2 J**-1)
 Alpha(0;0):
               (au)            (10**-24 esu)      (10**-40 SI)
   iso        0.204507D+02      0.303048D+01      0.337186D+01
   aniso      0.193664D+02      0.286980D+01      0.319308D+01
   xx         0.236229D+02      0.350055D+01      0.389489D+01
   yx         0.443793D+01      0.657634D+00      0.731716D+00
   yy         0.287528D+02      0.426072D+01      0.474070D+01
   zx         0.000000D+00      0.000000D+00      0.000000D+00
   zy         0.000000D+00      0.000000D+00      0.000000D+00
   zz         0.897640D+01      0.133017D+01      0.148001D+01

 ----------------------------------------------------------------------
 1\1\GINC-B083\Freq\RTPSSTPSS\6-31G(d,p)\C2H4\YUNWENT\09-Feb-2019\0\\#P
  Geom=AllCheck Guess=TCheck SCRF=Check GenChk RTPSSTPSS/6-31G(d,p) Fre
 q\\Title Card Required\\0,1\C,-1.1044226806,-1.0993434498,0.\H,-0.5898
 980105,-2.0592041268,0.\H,-2.1929309848,-1.1341832167,0.\C,-0.43651936
 94,0.0581045698,0.\H,-0.9510440395,1.0179652468,0.\H,0.6519889348,0.09
 29443367,0.\\Version=ES64L-G16RevB.01\State=1-AG\HF=-78.6044522\RMSD=1
 .194e-10\RMSF=2.182e-06\ZeroPoint=0.0506295\Thermal=0.053684\Dipole=0.
 ,0.,0.\DipoleDeriv=0.120371,-0.0521632,0.,-0.052163,0.0600782,0.,0.,0.
 ,-0.2702058,0.0027868,0.0731177,0.,0.0518378,-0.0930134,0.,0.,0.,0.135
 1026,-0.1231578,-0.0209545,0.,0.0003252,0.0329352,0.,0.,0.,0.1351032,0
 .120371,-0.0521632,0.,-0.052163,0.0600782,0.,0.,0.,-0.2702058,0.002786
 8,0.0731177,0.,0.0518378,-0.0930134,0.,0.,0.,0.1351026,-0.1231578,-0.0
 209545,0.,0.0003252,0.0329352,0.,0.,0.,0.1351032\Polar=23.6228775,4.43
 79328,28.7527962,0.,0.,8.9764039\Quadrupole=0.7014808,0.756545,-1.4580
 258,0.0476591,0.,0.\PG=C02H [SGH(C2H4)]\NImag=0\\0.68196740,0.09687789
 ,0.79394273,0.,0.,0.10334776,-0.12354659,0.11930221,0.,0.12168385,0.11
 568574,-0.26659126,0.,-0.12540929,0.28541860,0.,0.,-0.03486345,0.,0.,0
 .02368507,-0.33258409,-0.00512812,0.,-0.00999746,-0.00277137,0.,0.3530
 8886,-0.00151167,-0.05755749,0.,0.02563015,0.00321398,0.,0.00833210,0.
 05401691,0.,0.,-0.03486278,0.,0.,0.00213679,0.,0.,0.02368455,-0.224614
 43,-0.19702859,0.,0.01124394,0.01609497,0.,-0.01246623,-0.03011833,0.,
 0.68196740,-0.19702859,-0.45236134,0.,-0.01641477,-0.02057158,0.,0.002
 39138,0.00313894,0.,0.09687789,0.79394273,0.,0.,-0.04214729,0.,0.,0.00
 426296,0.,0.,0.00426281,0.,0.,0.10334776,0.01124394,-0.01641477,0.,-0.
 00075348,-0.00339540,0.,0.00136974,0.00028710,0.,-0.12354659,0.1193022
 1,0.,0.12168385,0.01609497,-0.02057158,0.,-0.00339540,-0.00288717,0.,-
 0.00020464,0.00141742,0.,0.11568574,-0.26659126,0.,-0.12540929,0.28541
 860,0.,0.,0.00426296,0.,0.,0.01316168,0.,0.,-0.00838305,0.,0.,-0.03486
 345,0.,0.,0.02368507,-0.01246623,0.00239138,0.,0.00136974,-0.00020464,
 0.,0.00058917,-0.00261935,0.,-0.33258409,-0.00512812,0.,-0.00999746,-0
 .00277137,0.,0.35308886,-0.03011833,0.00313894,0.,0.00028710,0.0014174
 2,0.,-0.00261935,-0.00422978,0.,-0.00151167,-0.05755749,0.,0.02563015,
 0.00321398,0.,0.00833210,0.05401691,0.,0.,0.00426281,0.,0.,-0.00838305
 ,0.,0.,0.01316168,0.,0.,-0.03486278,0.,0.,0.00213679,0.,0.,0.02368455\
 \0.00000011,0.00000393,0.,0.00000125,-0.00000392,0.,-0.00000296,-0.000
 00130,0.,-0.00000011,-0.00000393,0.,-0.00000125,0.00000392,0.,0.000002
 96,0.00000130,0.\\\@


 I DO NOT DEFINE TIME, SPACE, PLACE, AND MOTION, AS BEING WELL KNOWN TO ALL.
                                            -- NEWTON (1642-1726), PRINCIPIA
 Job cpu time:       0 days  0 hours  1 minutes 44.4 seconds.
 Elapsed time:       0 days  0 hours  0 minutes  3.5 seconds.
 File lengths (MBytes):  RWF=     17 Int=      0 D2E=      0 Chk=      2 Scr=      2
 Normal termination of Gaussian 16 at Sat Feb  9 14:30:46 2019.
